ITEM: TIMESTEP
0
ITEM: NUMBER OF ATOMS
34057
ITEM: BOX BOUNDS ff ff ff
-9.5000000000000000e+01 -5.0000000000000000e+00
3.0000000000000000e+01 1.2000000000000000e+02
-2.0000000000000000e+01 2.5000000000000000e+01
ITEM: ATOMS id type x y z
1 1 -52.6575 49.0875 -11.6025
2 1 -58.0125 50.8725 -11.6025
4 1 -54.4425 50.8725 -11.6025
6 1 -50.8725 50.8725 -11.6025
3 1 -57.12 51.765 -12.495
5 1 -53.55 51.765 -12.495
18 1 -55.335 48.195 -10.71
25 1 -51.765 48.195 -10.71
38 1 -60.69 49.98 -10.71
44 1 -57.12 49.98 -10.71
50 1 -53.55 49.98 -10.71
35 1 -62.475 51.765 -10.71
41 1 -58.905 51.765 -10.71
47 1 -55.335 51.765 -10.71
53 1 -51.765 51.765 -10.71
19 1 -56.2275 47.3025 -9.8175
26 1 -52.6575 47.3025 -9.8175
11 1 -61.5825 49.0875 -9.8175
15 1 -58.0125 49.0875 -9.8175
22 1 -54.4425 49.0875 -9.8175
29 1 -50.8725 49.0875 -9.8175
36 1 -63.3675 50.8725 -9.8175
42 1 -59.7975 50.8725 -9.8175
48 1 -56.2275 50.8725 -9.8175
54 1 -52.6575 50.8725 -9.8175
17 1 -55.335 46.41 -8.925
24 1 -51.765 46.41 -8.925
12 1 -60.69 48.195 -8.925
16 1 -57.12 48.195 -8.925
23 1 -53.55 48.195 -8.925
34 1 -62.475 49.98 -8.925
40 1 -58.905 49.98 -8.925
46 1 -55.335 49.98 -8.925
52 1 -51.765 49.98 -8.925
31 1 -67.83 51.765 -8.925
33 1 -64.26 51.765 -8.925
39 1 -60.69 51.765 -8.925
45 1 -57.12 51.765 -8.925
51 1 -53.55 51.765 -8.925
7 1 -56.2275 45.5175 -8.0325
8 1 -52.6575 45.5175 -8.0325
10 1 -61.5825 47.3025 -8.0325
14 1 -58.0125 47.3025 -8.0325
21 1 -54.4425 47.3025 -8.0325
28 1 -50.8725 47.3025 -8.0325
9 1 -63.3675 49.0875 -8.0325
13 1 -59.7975 49.0875 -8.0325
20 1 -56.2275 49.0875 -8.0325
27 1 -52.6575 49.0875 -8.0325
30 1 -68.7225 50.8725 -8.0325
32 1 -65.1525 50.8725 -8.0325
37 1 -61.5825 50.8725 -8.0325
43 1 -58.0125 50.8725 -8.0325
49 1 -54.4425 50.8725 -8.0325
55 1 -50.8725 50.8725 -8.0325
69 1 -56.2275 43.7325 -6.2475
76 1 -52.6575 43.7325 -6.2475
68 1 -55.335 44.625 -7.14
75 1 -51.765 44.625 -7.14
61 1 -61.5825 45.5175 -6.2475
65 1 -58.0125 45.5175 -6.2475
72 1 -54.4425 45.5175 -6.2475
79 1 -50.8725 45.5175 -6.2475
96 1 -60.69 46.41 -7.14
104 1 -57.12 46.41 -7.14
112 1 -53.55 46.41 -7.14
85 1 -66.045 48.195 -7.14
92 1 -63.3675 47.3025 -6.2475
91 1 -62.475 48.195 -7.14
100 1 -59.7975 47.3025 -6.2475
99 1 -58.905 48.195 -7.14
108 1 -56.2275 47.3025 -6.2475
107 1 -55.335 48.195 -7.14
116 1 -52.6575 47.3025 -6.2475
115 1 -51.765 48.195 -7.14
82 1 -68.7225 49.0875 -6.2475
88 1 -65.1525 49.0875 -6.2475
95 1 -61.5825 49.0875 -6.2475
103 1 -58.0125 49.0875 -6.2475
111 1 -54.4425 49.0875 -6.2475
119 1 -50.8725 49.0875 -6.2475
126 1 -67.83 49.98 -7.14
132 1 -64.26 49.98 -7.14
138 1 -60.69 49.98 -7.14
144 1 -57.12 49.98 -7.14
150 1 -53.55 49.98 -7.14
124 1 -70.5075 50.8725 -6.2475
130 1 -66.9375 50.8725 -6.2475
136 1 -63.3675 50.8725 -6.2475
142 1 -59.7975 50.8725 -6.2475
148 1 -56.2275 50.8725 -6.2475
154 1 -52.6575 50.8725 -6.2475
123 1 -69.615 51.765 -7.14
129 1 -66.045 51.765 -7.14
135 1 -62.475 51.765 -7.14
141 1 -58.905 51.765 -7.14
147 1 -55.335 51.765 -7.14
153 1 -51.765 51.765 -7.14
67 1 -55.335 42.84 -5.355
74 1 -51.765 42.84 -5.355
62 1 -60.69 44.625 -5.355
66 1 -57.12 44.625 -5.355
73 1 -53.55 44.625 -5.355
84 1 -66.045 46.41 -5.355
90 1 -62.475 46.41 -5.355
98 1 -58.905 46.41 -5.355
106 1 -55.335 46.41 -5.355
114 1 -51.765 46.41 -5.355
83 1 -67.83 48.195 -5.355
89 1 -64.26 48.195 -5.355
97 1 -60.69 48.195 -5.355
105 1 -57.12 48.195 -5.355
113 1 -53.55 48.195 -5.355
122 1 -69.615 49.98 -5.355
128 1 -66.045 49.98 -5.355
134 1 -62.475 49.98 -5.355
140 1 -58.905 49.98 -5.355
146 1 -55.335 49.98 -5.355
152 1 -51.765 49.98 -5.355
121 1 -71.4 51.765 -5.355
127 1 -67.83 51.765 -5.355
133 1 -64.26 51.765 -5.355
139 1 -60.69 51.765 -5.355
145 1 -57.12 51.765 -5.355
151 1 -53.55 51.765 -5.355
56 1 -56.2275 41.9475 -4.4625
57 1 -52.6575 41.9475 -4.4625
60 1 -61.5825 43.7325 -4.4625
64 1 -58.0125 43.7325 -4.4625
71 1 -54.4425 43.7325 -4.4625
78 1 -50.8725 43.7325 -4.4625
58 1 -66.9375 45.5175 -4.4625
59 1 -63.3675 45.5175 -4.4625
63 1 -59.7975 45.5175 -4.4625
70 1 -56.2275 45.5175 -4.4625
77 1 -52.6575 45.5175 -4.4625
81 1 -68.7225 47.3025 -4.4625
87 1 -65.1525 47.3025 -4.4625
94 1 -61.5825 47.3025 -4.4625
102 1 -58.0125 47.3025 -4.4625
110 1 -54.4425 47.3025 -4.4625
118 1 -50.8725 47.3025 -4.4625
80 1 -70.5075 49.0875 -4.4625
86 1 -66.9375 49.0875 -4.4625
93 1 -63.3675 49.0875 -4.4625
101 1 -59.7975 49.0875 -4.4625
109 1 -56.2275 49.0875 -4.4625
117 1 -52.6575 49.0875 -4.4625
120 1 -72.2925 50.8725 -4.4625
125 1 -68.7225 50.8725 -4.4625
131 1 -65.1525 50.8725 -4.4625
137 1 -61.5825 50.8725 -4.4625
143 1 -58.0125 50.8725 -4.4625
149 1 -54.4425 50.8725 -4.4625
155 1 -50.8725 50.8725 -4.4625
166 1 -55.335 41.055 -3.57
173 1 -51.765 41.055 -3.57
194 1 -60.69 42.84 -3.57
202 1 -57.12 42.84 -3.57
210 1 -53.55 42.84 -3.57
183 1 -66.045 44.625 -3.57
189 1 -62.475 44.625 -3.57
197 1 -58.905 44.625 -3.57
205 1 -55.335 44.625 -3.57
213 1 -51.765 44.625 -3.57
228 1 -67.83 46.41 -3.57
236 1 -64.26 46.41 -3.57
244 1 -60.69 46.41 -3.57
252 1 -57.12 46.41 -3.57
260 1 -53.55 46.41 -3.57
223 1 -69.615 48.195 -3.57
231 1 -66.045 48.195 -3.57
239 1 -62.475 48.195 -3.57
247 1 -58.905 48.195 -3.57
255 1 -55.335 48.195 -3.57
263 1 -51.765 48.195 -3.57
274 1 -71.4 49.98 -3.57
280 1 -67.83 49.98 -3.57
286 1 -64.26 49.98 -3.57
292 1 -60.69 49.98 -3.57
298 1 -57.12 49.98 -3.57
304 1 -53.55 49.98 -3.57
271 1 -73.185 51.765 -3.57
277 1 -69.615 51.765 -3.57
283 1 -66.045 51.765 -3.57
289 1 -62.475 51.765 -3.57
295 1 -58.905 51.765 -3.57
301 1 -55.335 51.765 -3.57
307 1 -51.765 51.765 -3.57
167 1 -56.2275 40.1625 -2.6775
174 1 -52.6575 40.1625 -2.6775
159 1 -61.5825 41.9475 -2.6775
163 1 -58.0125 41.9475 -2.6775
170 1 -54.4425 41.9475 -2.6775
177 1 -50.8725 41.9475 -2.6775
190 1 -63.3675 43.7325 -2.6775
198 1 -59.7975 43.7325 -2.6775
206 1 -56.2275 43.7325 -2.6775
214 1 -52.6575 43.7325 -2.6775
180 1 -68.7225 45.5175 -2.6775
186 1 -65.1525 45.5175 -2.6775
193 1 -61.5825 45.5175 -2.6775
201 1 -58.0125 45.5175 -2.6775
209 1 -54.4425 45.5175 -2.6775
217 1 -50.8725 45.5175 -2.6775
224 1 -70.5075 47.3025 -2.6775
232 1 -66.9375 47.3025 -2.6775
240 1 -63.3675 47.3025 -2.6775
248 1 -59.7975 47.3025 -2.6775
256 1 -56.2275 47.3025 -2.6775
264 1 -52.6575 47.3025 -2.6775
220 1 -72.2925 49.0875 -2.6775
227 1 -68.7225 49.0875 -2.6775
235 1 -65.1525 49.0875 -2.6775
243 1 -61.5825 49.0875 -2.6775
251 1 -58.0125 49.0875 -2.6775
259 1 -54.4425 49.0875 -2.6775
267 1 -50.8725 49.0875 -2.6775
272 1 -74.0775 50.8725 -2.6775
278 1 -70.5075 50.8725 -2.6775
284 1 -66.9375 50.8725 -2.6775
290 1 -63.3675 50.8725 -2.6775
296 1 -59.7975 50.8725 -2.6775
302 1 -56.2275 50.8725 -2.6775
308 1 -52.6575 50.8725 -2.6775
156 1 -52.6575 38.3775 -0.8925
165 1 -55.335 39.27 -1.785
172 1 -51.765 39.27 -1.785
158 1 -61.5825 40.1625 -0.8925
162 1 -58.0125 40.1625 -0.8925
169 1 -54.4425 40.1625 -0.8925
176 1 -50.8725 40.1625 -0.8925
160 1 -60.69 41.055 -1.785
164 1 -57.12 41.055 -1.785
171 1 -53.55 41.055 -1.785
182 1 -66.045 42.84 -1.785
157 1 -63.3675 41.9475 -0.8925
188 1 -62.475 42.84 -1.785
161 1 -59.7975 41.9475 -0.8925
196 1 -58.905 42.84 -1.785
168 1 -56.2275 41.9475 -0.8925
204 1 -55.335 42.84 -1.785
175 1 -52.6575 41.9475 -0.8925
212 1 -51.765 42.84 -1.785
179 1 -68.7225 43.7325 -0.8925
185 1 -65.1525 43.7325 -0.8925
192 1 -61.5825 43.7325 -0.8925
200 1 -58.0125 43.7325 -0.8925
208 1 -54.4425 43.7325 -0.8925
216 1 -50.8725 43.7325 -0.8925
181 1 -67.83 44.625 -1.785
187 1 -64.26 44.625 -1.785
195 1 -60.69 44.625 -1.785
203 1 -57.12 44.625 -1.785
211 1 -53.55 44.625 -1.785
178 1 -70.5075 45.5175 -0.8925
184 1 -66.9375 45.5175 -0.8925
191 1 -63.3675 45.5175 -0.8925
199 1 -59.7975 45.5175 -0.8925
207 1 -56.2275 45.5175 -0.8925
215 1 -52.6575 45.5175 -0.8925
222 1 -69.615 46.41 -1.785
230 1 -66.045 46.41 -1.785
238 1 -62.475 46.41 -1.785
246 1 -58.905 46.41 -1.785
254 1 -55.335 46.41 -1.785
262 1 -51.765 46.41 -1.785
219 1 -72.2925 47.3025 -0.8925
221 1 -71.4 48.195 -1.785
226 1 -68.7225 47.3025 -0.8925
229 1 -67.83 48.195 -1.785
234 1 -65.1525 47.3025 -0.8925
237 1 -64.26 48.195 -1.785
242 1 -61.5825 47.3025 -0.8925
245 1 -60.69 48.195 -1.785
250 1 -58.0125 47.3025 -0.8925
253 1 -57.12 48.195 -1.785
258 1 -54.4425 47.3025 -0.8925
261 1 -53.55 48.195 -1.785
266 1 -50.8725 47.3025 -0.8925
218 1 -74.0775 49.0875 -0.8925
225 1 -70.5075 49.0875 -0.8925
233 1 -66.9375 49.0875 -0.8925
241 1 -63.3675 49.0875 -0.8925
249 1 -59.7975 49.0875 -0.8925
257 1 -56.2275 49.0875 -0.8925
265 1 -52.6575 49.0875 -0.8925
270 1 -73.185 49.98 -1.785
276 1 -69.615 49.98 -1.785
282 1 -66.045 49.98 -1.785
288 1 -62.475 49.98 -1.785
294 1 -58.905 49.98 -1.785
300 1 -55.335 49.98 -1.785
306 1 -51.765 49.98 -1.785
268 1 -75.8625 50.8725 -0.8925
273 1 -72.2925 50.8725 -0.8925
279 1 -68.7225 50.8725 -0.8925
285 1 -65.1525 50.8725 -0.8925
291 1 -61.5825 50.8725 -0.8925
297 1 -58.0125 50.8725 -0.8925
303 1 -54.4425 50.8725 -0.8925
309 1 -50.8725 50.8725 -0.8925
269 1 -74.97 51.765 -1.785
275 1 -71.4 51.765 -1.785
281 1 -67.83 51.765 -1.785
287 1 -64.26 51.765 -1.785
293 1 -60.69 51.765 -1.785
299 1 -57.12 51.765 -1.785
305 1 -53.55 51.765 -1.785
323 1 -60.69 39.27 0
329 1 -57.12 39.27 0
335 1 -53.55 39.27 0
320 1 -62.475 41.055 0
326 1 -58.905 41.055 0
332 1 -55.335 41.055 0
338 1 -51.765 41.055 0
347 1 -67.83 42.84 0
353 1 -64.26 42.84 0
359 1 -60.69 42.84 0
365 1 -57.12 42.84 0
371 1 -53.55 42.84 0
344 1 -69.615 44.625 0
350 1 -66.045 44.625 0
356 1 -62.475 44.625 0
362 1 -58.905 44.625 0
368 1 -55.335 44.625 0
374 1 -51.765 44.625 0
383 1 -71.4 46.41 0
389 1 -67.83 46.41 0
395 1 -64.26 46.41 0
401 1 -60.69 46.41 0
407 1 -57.12 46.41 0
413 1 -53.55 46.41 0
380 1 -73.185 48.195 0
386 1 -69.615 48.195 0
392 1 -66.045 48.195 0
398 1 -62.475 48.195 0
404 1 -58.905 48.195 0
410 1 -55.335 48.195 0
416 1 -51.765 48.195 0
423 1 -74.97 49.98 0
428 1 -71.4 49.98 0
433 1 -67.83 49.98 0
438 1 -64.26 49.98 0
443 1 -60.69 49.98 0
448 1 -57.12 49.98 0
453 1 -53.55 49.98 0
421 1 -76.755 51.765 0
426 1 -73.185 51.765 0
431 1 -69.615 51.765 0
436 1 -66.045 51.765 0
441 1 -62.475 51.765 0
446 1 -58.905 51.765 0
451 1 -55.335 51.765 0
456 1 -51.765 51.765 0
310 1 -58.0125 38.3775 0.8925
312 1 -54.4425 38.3775 0.8925
314 1 -50.8725 38.3775 0.8925
321 1 -63.3675 40.1625 0.8925
327 1 -59.7975 40.1625 0.8925
333 1 -56.2275 40.1625 0.8925
339 1 -52.6575 40.1625 0.8925
315 1 -68.7225 41.9475 0.8925
317 1 -65.1525 41.9475 0.8925
322 1 -61.5825 41.9475 0.8925
328 1 -58.0125 41.9475 0.8925
334 1 -54.4425 41.9475 0.8925
340 1 -50.8725 41.9475 0.8925
345 1 -70.5075 43.7325 0.8925
351 1 -66.9375 43.7325 0.8925
357 1 -63.3675 43.7325 0.8925
363 1 -59.7975 43.7325 0.8925
369 1 -56.2275 43.7325 0.8925
375 1 -52.6575 43.7325 0.8925
341 1 -72.2925 45.5175 0.8925
346 1 -68.7225 45.5175 0.8925
352 1 -65.1525 45.5175 0.8925
358 1 -61.5825 45.5175 0.8925
364 1 -58.0125 45.5175 0.8925
370 1 -54.4425 45.5175 0.8925
376 1 -50.8725 45.5175 0.8925
381 1 -74.0775 47.3025 0.8925
387 1 -70.5075 47.3025 0.8925
393 1 -66.9375 47.3025 0.8925
399 1 -63.3675 47.3025 0.8925
405 1 -59.7975 47.3025 0.8925
411 1 -56.2275 47.3025 0.8925
417 1 -52.6575 47.3025 0.8925
377 1 -75.8625 49.0875 0.8925
382 1 -72.2925 49.0875 0.8925
388 1 -68.7225 49.0875 0.8925
394 1 -65.1525 49.0875 0.8925
400 1 -61.5825 49.0875 0.8925
406 1 -58.0125 49.0875 0.8925
412 1 -54.4425 49.0875 0.8925
418 1 -50.8725 49.0875 0.8925
422 1 -77.6475 50.8725 0.8925
427 1 -74.0775 50.8725 0.8925
432 1 -70.5075 50.8725 0.8925
437 1 -66.9375 50.8725 0.8925
442 1 -63.3675 50.8725 0.8925
447 1 -59.7975 50.8725 0.8925
452 1 -56.2275 50.8725 0.8925
457 1 -52.6575 50.8725 0.8925
311 1 -57.12 37.485 1.785
313 1 -53.55 37.485 1.785
319 1 -62.475 39.27 1.785
325 1 -58.905 39.27 1.785
331 1 -55.335 39.27 1.785
337 1 -51.765 39.27 1.785
316 1 -67.83 41.055 1.785
318 1 -64.26 41.055 1.785
324 1 -60.69 41.055 1.785
330 1 -57.12 41.055 1.785
336 1 -53.55 41.055 1.785
343 1 -69.615 42.84 1.785
349 1 -66.045 42.84 1.785
355 1 -62.475 42.84 1.785
361 1 -58.905 42.84 1.785
367 1 -55.335 42.84 1.785
373 1 -51.765 42.84 1.785
342 1 -71.4 44.625 1.785
348 1 -67.83 44.625 1.785
354 1 -64.26 44.625 1.785
360 1 -60.69 44.625 1.785
366 1 -57.12 44.625 1.785
372 1 -53.55 44.625 1.785
379 1 -73.185 46.41 1.785
385 1 -69.615 46.41 1.785
391 1 -66.045 46.41 1.785
397 1 -62.475 46.41 1.785
403 1 -58.905 46.41 1.785
409 1 -55.335 46.41 1.785
415 1 -51.765 46.41 1.785
378 1 -74.97 48.195 1.785
384 1 -71.4 48.195 1.785
390 1 -67.83 48.195 1.785
396 1 -64.26 48.195 1.785
402 1 -60.69 48.195 1.785
408 1 -57.12 48.195 1.785
414 1 -53.55 48.195 1.785
420 1 -76.755 49.98 1.785
425 1 -73.185 49.98 1.785
430 1 -69.615 49.98 1.785
435 1 -66.045 49.98 1.785
440 1 -62.475 49.98 1.785
445 1 -58.905 49.98 1.785
450 1 -55.335 49.98 1.785
455 1 -51.765 49.98 1.785
419 1 -78.54 51.765 1.785
424 1 -74.97 51.765 1.785
429 1 -71.4 51.765 1.785
434 1 -67.83 51.765 1.785
439 1 -64.26 51.765 1.785
444 1 -60.69 51.765 1.785
449 1 -57.12 51.765 1.785
454 1 -53.55 51.765 1.785
537 1 -53.55 35.7 3.57
519 1 -62.475 37.485 3.57
525 1 -58.905 37.485 3.57
461 1 -54.4425 36.5925 2.6775
532 1 -55.335 37.485 3.57
540 1 -51.765 37.485 3.57
463 1 -50.8725 36.5925 2.6775
458 1 -63.3675 38.3775 2.6775
459 1 -59.7975 38.3775 2.6775
460 1 -56.2275 38.3775 2.6775
462 1 -52.6575 38.3775 2.6775
559 1 -64.26 39.27 3.57
567 1 -60.69 39.27 3.57
575 1 -57.12 39.27 3.57
583 1 -53.55 39.27 3.57
466 1 -65.1525 40.1625 2.6775
468 1 -61.5825 40.1625 2.6775
470 1 -58.0125 40.1625 2.6775
472 1 -54.4425 40.1625 2.6775
474 1 -50.8725 40.1625 2.6775
548 1 -69.615 41.055 3.57
554 1 -66.045 41.055 3.57
562 1 -62.475 41.055 3.57
570 1 -58.905 41.055 3.57
578 1 -55.335 41.055 3.57
586 1 -51.765 41.055 3.57
464 1 -70.5075 41.9475 2.6775
601 1 -71.4 42.84 3.57
609 1 -67.83 42.84 3.57
465 1 -66.9375 41.9475 2.6775
617 1 -64.26 42.84 3.57
467 1 -63.3675 41.9475 2.6775
469 1 -59.7975 41.9475 2.6775
625 1 -60.69 42.84 3.57
633 1 -57.12 42.84 3.57
471 1 -56.2275 41.9475 2.6775
641 1 -53.55 42.84 3.57
473 1 -52.6575 41.9475 2.6775
476 1 -72.2925 43.7325 2.6775
478 1 -68.7225 43.7325 2.6775
480 1 -65.1525 43.7325 2.6775
482 1 -61.5825 43.7325 2.6775
484 1 -58.0125 43.7325 2.6775
486 1 -54.4425 43.7325 2.6775
488 1 -50.8725 43.7325 2.6775
596 1 -73.185 44.625 3.57
604 1 -69.615 44.625 3.57
612 1 -66.045 44.625 3.57
620 1 -62.475 44.625 3.57
628 1 -58.905 44.625 3.57
636 1 -55.335 44.625 3.57
644 1 -51.765 44.625 3.57
475 1 -74.0775 45.5175 2.6775
477 1 -70.5075 45.5175 2.6775
479 1 -66.9375 45.5175 2.6775
481 1 -63.3675 45.5175 2.6775
483 1 -59.7975 45.5175 2.6775
485 1 -56.2275 45.5175 2.6775
487 1 -52.6575 45.5175 2.6775
659 1 -74.97 46.41 3.57
667 1 -71.4 46.41 3.57
675 1 -67.83 46.41 3.57
683 1 -64.26 46.41 3.57
691 1 -60.69 46.41 3.57
699 1 -57.12 46.41 3.57
707 1 -53.55 46.41 3.57
490 1 -75.8625 47.3025 2.6775
654 1 -76.755 48.195 3.57
662 1 -73.185 48.195 3.57
492 1 -72.2925 47.3025 2.6775
670 1 -69.615 48.195 3.57
494 1 -68.7225 47.3025 2.6775
496 1 -65.1525 47.3025 2.6775
678 1 -66.045 48.195 3.57
686 1 -62.475 48.195 3.57
498 1 -61.5825 47.3025 2.6775
694 1 -58.905 48.195 3.57
500 1 -58.0125 47.3025 2.6775
502 1 -54.4425 47.3025 2.6775
702 1 -55.335 48.195 3.57
710 1 -51.765 48.195 3.57
504 1 -50.8725 47.3025 2.6775
489 1 -77.6475 49.0875 2.6775
491 1 -74.0775 49.0875 2.6775
493 1 -70.5075 49.0875 2.6775
495 1 -66.9375 49.0875 2.6775
497 1 -63.3675 49.0875 2.6775
499 1 -59.7975 49.0875 2.6775
501 1 -56.2275 49.0875 2.6775
503 1 -52.6575 49.0875 2.6775
721 1 -78.54 49.98 3.57
727 1 -74.97 49.98 3.57
733 1 -71.4 49.98 3.57
739 1 -67.83 49.98 3.57
745 1 -64.26 49.98 3.57
751 1 -60.69 49.98 3.57
757 1 -57.12 49.98 3.57
763 1 -53.55 49.98 3.57
505 1 -79.4325 50.8725 2.6775
506 1 -75.8625 50.8725 2.6775
507 1 -72.2925 50.8725 2.6775
508 1 -68.7225 50.8725 2.6775
509 1 -65.1525 50.8725 2.6775
510 1 -61.5825 50.8725 2.6775
511 1 -58.0125 50.8725 2.6775
512 1 -54.4425 50.8725 2.6775
513 1 -50.8725 50.8725 2.6775
718 1 -80.325 51.765 3.57
724 1 -76.755 51.765 3.57
730 1 -73.185 51.765 3.57
736 1 -69.615 51.765 3.57
742 1 -66.045 51.765 3.57
748 1 -62.475 51.765 3.57
754 1 -58.905 51.765 3.57
760 1 -55.335 51.765 3.57
766 1 -51.765 51.765 3.57
526 1 -59.7975 36.5925 4.4625
533 1 -56.2275 36.5925 4.4625
541 1 -52.6575 36.5925 4.4625
517 1 -65.1525 38.3775 4.4625
522 1 -61.5825 38.3775 4.4625
529 1 -58.0125 38.3775 4.4625
536 1 -54.4425 38.3775 4.4625
544 1 -50.8725 38.3775 4.4625
555 1 -66.9375 40.1625 4.4625
563 1 -63.3675 40.1625 4.4625
571 1 -59.7975 40.1625 4.4625
579 1 -56.2275 40.1625 4.4625
587 1 -52.6575 40.1625 4.4625
546 1 -72.2925 41.9475 4.4625
551 1 -68.7225 41.9475 4.4625
558 1 -65.1525 41.9475 4.4625
566 1 -61.5825 41.9475 4.4625
574 1 -58.0125 41.9475 4.4625
582 1 -54.4425 41.9475 4.4625
590 1 -50.8725 41.9475 4.4625
597 1 -74.0775 43.7325 4.4625
605 1 -70.5075 43.7325 4.4625
613 1 -66.9375 43.7325 4.4625
621 1 -63.3675 43.7325 4.4625
629 1 -59.7975 43.7325 4.4625
637 1 -56.2275 43.7325 4.4625
645 1 -52.6575 43.7325 4.4625
593 1 -75.8625 45.5175 4.4625
600 1 -72.2925 45.5175 4.4625
608 1 -68.7225 45.5175 4.4625
616 1 -65.1525 45.5175 4.4625
624 1 -61.5825 45.5175 4.4625
632 1 -58.0125 45.5175 4.4625
640 1 -54.4425 45.5175 4.4625
648 1 -50.8725 45.5175 4.4625
655 1 -77.6475 47.3025 4.4625
663 1 -74.0775 47.3025 4.4625
671 1 -70.5075 47.3025 4.4625
679 1 -66.9375 47.3025 4.4625
687 1 -63.3675 47.3025 4.4625
695 1 -59.7975 47.3025 4.4625
703 1 -56.2275 47.3025 4.4625
711 1 -52.6575 47.3025 4.4625
651 1 -79.4325 49.0875 4.4625
658 1 -75.8625 49.0875 4.4625
666 1 -72.2925 49.0875 4.4625
674 1 -68.7225 49.0875 4.4625
682 1 -65.1525 49.0875 4.4625
690 1 -61.5825 49.0875 4.4625
698 1 -58.0125 49.0875 4.4625
706 1 -54.4425 49.0875 4.4625
714 1 -50.8725 49.0875 4.4625
719 1 -81.2175 50.8725 4.4625
725 1 -77.6475 50.8725 4.4625
731 1 -74.0775 50.8725 4.4625
737 1 -70.5075 50.8725 4.4625
743 1 -66.9375 50.8725 4.4625
749 1 -63.3675 50.8725 4.4625
755 1 -59.7975 50.8725 4.4625
761 1 -56.2275 50.8725 4.4625
767 1 -52.6575 50.8725 4.4625
524 1 -58.905 35.7 5.355
531 1 -55.335 35.7 5.355
539 1 -51.765 35.7 5.355
518 1 -64.26 37.485 5.355
523 1 -60.69 37.485 5.355
530 1 -57.12 37.485 5.355
538 1 -53.55 37.485 5.355
553 1 -66.045 39.27 5.355
561 1 -62.475 39.27 5.355
569 1 -58.905 39.27 5.355
577 1 -55.335 39.27 5.355
585 1 -51.765 39.27 5.355
547 1 -71.4 41.055 5.355
552 1 -67.83 41.055 5.355
560 1 -64.26 41.055 5.355
568 1 -60.69 41.055 5.355
576 1 -57.12 41.055 5.355
584 1 -53.55 41.055 5.355
595 1 -73.185 42.84 5.355
603 1 -69.615 42.84 5.355
611 1 -66.045 42.84 5.355
619 1 -62.475 42.84 5.355
627 1 -58.905 42.84 5.355
635 1 -55.335 42.84 5.355
643 1 -51.765 42.84 5.355
594 1 -74.97 44.625 5.355
602 1 -71.4 44.625 5.355
610 1 -67.83 44.625 5.355
618 1 -64.26 44.625 5.355
626 1 -60.69 44.625 5.355
634 1 -57.12 44.625 5.355
642 1 -53.55 44.625 5.355
653 1 -76.755 46.41 5.355
661 1 -73.185 46.41 5.355
669 1 -69.615 46.41 5.355
677 1 -66.045 46.41 5.355
685 1 -62.475 46.41 5.355
693 1 -58.905 46.41 5.355
701 1 -55.335 46.41 5.355
709 1 -51.765 46.41 5.355
652 1 -78.54 48.195 5.355
660 1 -74.97 48.195 5.355
668 1 -71.4 48.195 5.355
676 1 -67.83 48.195 5.355
684 1 -64.26 48.195 5.355
692 1 -60.69 48.195 5.355
700 1 -57.12 48.195 5.355
708 1 -53.55 48.195 5.355
717 1 -80.325 49.98 5.355
723 1 -76.755 49.98 5.355
729 1 -73.185 49.98 5.355
735 1 -69.615 49.98 5.355
741 1 -66.045 49.98 5.355
747 1 -62.475 49.98 5.355
753 1 -58.905 49.98 5.355
759 1 -55.335 49.98 5.355
765 1 -51.765 49.98 5.355
716 1 -82.11 51.765 5.355
722 1 -78.54 51.765 5.355
728 1 -74.97 51.765 5.355
734 1 -71.4 51.765 5.355
740 1 -67.83 51.765 5.355
746 1 -64.26 51.765 5.355
752 1 -60.69 51.765 5.355
758 1 -57.12 51.765 5.355
764 1 -53.55 51.765 5.355
514 1 -56.2275 34.8075 6.2475
515 1 -52.6575 34.8075 6.2475
521 1 -61.5825 36.5925 6.2475
528 1 -58.0125 36.5925 6.2475
535 1 -54.4425 36.5925 6.2475
543 1 -50.8725 36.5925 6.2475
516 1 -66.9375 38.3775 6.2475
520 1 -63.3675 38.3775 6.2475
527 1 -59.7975 38.3775 6.2475
534 1 -56.2275 38.3775 6.2475
542 1 -52.6575 38.3775 6.2475
550 1 -68.7225 40.1625 6.2475
557 1 -65.1525 40.1625 6.2475
565 1 -61.5825 40.1625 6.2475
573 1 -58.0125 40.1625 6.2475
581 1 -54.4425 40.1625 6.2475
589 1 -50.8725 40.1625 6.2475
545 1 -74.0775 41.9475 6.2475
549 1 -70.5075 41.9475 6.2475
556 1 -66.9375 41.9475 6.2475
564 1 -63.3675 41.9475 6.2475
572 1 -59.7975 41.9475 6.2475
580 1 -56.2275 41.9475 6.2475
588 1 -52.6575 41.9475 6.2475
592 1 -75.8625 43.7325 6.2475
599 1 -72.2925 43.7325 6.2475
607 1 -68.7225 43.7325 6.2475
615 1 -65.1525 43.7325 6.2475
623 1 -61.5825 43.7325 6.2475
631 1 -58.0125 43.7325 6.2475
639 1 -54.4425 43.7325 6.2475
647 1 -50.8725 43.7325 6.2475
591 1 -77.6475 45.5175 6.2475
598 1 -74.0775 45.5175 6.2475
606 1 -70.5075 45.5175 6.2475
614 1 -66.9375 45.5175 6.2475
622 1 -63.3675 45.5175 6.2475
630 1 -59.7975 45.5175 6.2475
638 1 -56.2275 45.5175 6.2475
646 1 -52.6575 45.5175 6.2475
650 1 -79.4325 47.3025 6.2475
657 1 -75.8625 47.3025 6.2475
665 1 -72.2925 47.3025 6.2475
673 1 -68.7225 47.3025 6.2475
681 1 -65.1525 47.3025 6.2475
689 1 -61.5825 47.3025 6.2475
697 1 -58.0125 47.3025 6.2475
705 1 -54.4425 47.3025 6.2475
713 1 -50.8725 47.3025 6.2475
649 1 -81.2175 49.0875 6.2475
656 1 -77.6475 49.0875 6.2475
664 1 -74.0775 49.0875 6.2475
672 1 -70.5075 49.0875 6.2475
680 1 -66.9375 49.0875 6.2475
688 1 -63.3675 49.0875 6.2475
696 1 -59.7975 49.0875 6.2475
704 1 -56.2275 49.0875 6.2475
712 1 -52.6575 49.0875 6.2475
715 1 -83.0025 50.8725 6.2475
720 1 -79.4325 50.8725 6.2475
726 1 -75.8625 50.8725 6.2475
732 1 -72.2925 50.8725 6.2475
738 1 -68.7225 50.8725 6.2475
744 1 -65.1525 50.8725 6.2475
750 1 -61.5825 50.8725 6.2475
756 1 -58.0125 50.8725 6.2475
762 1 -54.4425 50.8725 6.2475
768 1 -50.8725 50.8725 6.2475
777 1 -51.765 33.915 7.14
795 1 -60.69 35.7 7.14
803 1 -57.12 35.7 7.14
811 1 -53.55 35.7 7.14
784 1 -66.045 37.485 7.14
790 1 -62.475 37.485 7.14
798 1 -58.905 37.485 7.14
806 1 -55.335 37.485 7.14
814 1 -51.765 37.485 7.14
830 1 -67.83 39.27 7.14
838 1 -64.26 39.27 7.14
846 1 -60.69 39.27 7.14
854 1 -57.12 39.27 7.14
862 1 -53.55 39.27 7.14
819 1 -73.185 41.055 7.14
825 1 -69.615 41.055 7.14
833 1 -66.045 41.055 7.14
841 1 -62.475 41.055 7.14
849 1 -58.905 41.055 7.14
857 1 -55.335 41.055 7.14
865 1 -51.765 41.055 7.14
877 1 -74.97 42.84 7.14
885 1 -71.4 42.84 7.14
893 1 -67.83 42.84 7.14
901 1 -64.26 42.84 7.14
909 1 -60.69 42.84 7.14
917 1 -57.12 42.84 7.14
925 1 -53.55 42.84 7.14
873 1 -76.755 44.625 7.14
880 1 -73.185 44.625 7.14
888 1 -69.615 44.625 7.14
896 1 -66.045 44.625 7.14
904 1 -62.475 44.625 7.14
912 1 -58.905 44.625 7.14
920 1 -55.335 44.625 7.14
928 1 -51.765 44.625 7.14
939 1 -78.54 46.41 7.14
947 1 -74.97 46.41 7.14
955 1 -71.4 46.41 7.14
963 1 -67.83 46.41 7.14
971 1 -64.26 46.41 7.14
979 1 -60.69 46.41 7.14
987 1 -57.12 46.41 7.14
995 1 -53.55 46.41 7.14
935 1 -80.325 48.195 7.14
942 1 -76.755 48.195 7.14
950 1 -73.185 48.195 7.14
958 1 -69.615 48.195 7.14
966 1 -66.045 48.195 7.14
974 1 -62.475 48.195 7.14
982 1 -58.905 48.195 7.14
990 1 -55.335 48.195 7.14
998 1 -51.765 48.195 7.14
1005 1 -82.11 49.98 7.14
1011 1 -78.54 49.98 7.14
1017 1 -74.97 49.98 7.14
1023 1 -71.4 49.98 7.14
1029 1 -67.83 49.98 7.14
1035 1 -64.26 49.98 7.14
1041 1 -60.69 49.98 7.14
1047 1 -57.12 49.98 7.14
1053 1 -53.55 49.98 7.14
1003 1 -83.895 51.765 7.14
1008 1 -80.325 51.765 7.14
1014 1 -76.755 51.765 7.14
1020 1 -73.185 51.765 7.14
1026 1 -69.615 51.765 7.14
1032 1 -66.045 51.765 7.14
1038 1 -62.475 51.765 7.14
1044 1 -58.905 51.765 7.14
1050 1 -55.335 51.765 7.14
1056 1 -51.765 51.765 7.14
772 1 -57.12 33.915 8.925
776 1 -53.55 33.915 8.925
771 1 -58.0125 34.8075 8.0325
775 1 -54.4425 34.8075 8.0325
780 1 -50.8725 34.8075 8.0325
789 1 -62.475 35.7 8.925
797 1 -58.905 35.7 8.925
805 1 -55.335 35.7 8.925
813 1 -51.765 35.7 8.925
783 1 -67.83 37.485 8.925
788 1 -64.26 37.485 8.925
791 1 -63.3675 36.5925 8.0325
796 1 -60.69 37.485 8.925
799 1 -59.7975 36.5925 8.0325
804 1 -57.12 37.485 8.925
807 1 -56.2275 36.5925 8.0325
812 1 -53.55 37.485 8.925
815 1 -52.6575 36.5925 8.0325
782 1 -68.7225 38.3775 8.0325
787 1 -65.1525 38.3775 8.0325
794 1 -61.5825 38.3775 8.0325
802 1 -58.0125 38.3775 8.0325
810 1 -54.4425 38.3775 8.0325
818 1 -50.8725 38.3775 8.0325
824 1 -69.615 39.27 8.925
832 1 -66.045 39.27 8.925
840 1 -62.475 39.27 8.925
848 1 -58.905 39.27 8.925
856 1 -55.335 39.27 8.925
864 1 -51.765 39.27 8.925
826 1 -70.5075 40.1625 8.0325
834 1 -66.9375 40.1625 8.0325
842 1 -63.3675 40.1625 8.0325
850 1 -59.7975 40.1625 8.0325
858 1 -56.2275 40.1625 8.0325
866 1 -52.6575 40.1625 8.0325
823 1 -71.4 41.055 8.925
831 1 -67.83 41.055 8.925
839 1 -64.26 41.055 8.925
847 1 -60.69 41.055 8.925
855 1 -57.12 41.055 8.925
863 1 -53.55 41.055 8.925
872 1 -76.755 42.84 8.925
879 1 -73.185 42.84 8.925
822 1 -72.2925 41.9475 8.0325
887 1 -69.615 42.84 8.925
829 1 -68.7225 41.9475 8.0325
837 1 -65.1525 41.9475 8.0325
895 1 -66.045 42.84 8.925
903 1 -62.475 42.84 8.925
845 1 -61.5825 41.9475 8.0325
911 1 -58.905 42.84 8.925
853 1 -58.0125 41.9475 8.0325
861 1 -54.4425 41.9475 8.0325
919 1 -55.335 42.84 8.925
927 1 -51.765 42.84 8.925
869 1 -50.8725 41.9475 8.0325
881 1 -74.0775 43.7325 8.0325
889 1 -70.5075 43.7325 8.0325
897 1 -66.9375 43.7325 8.0325
905 1 -63.3675 43.7325 8.0325
913 1 -59.7975 43.7325 8.0325
921 1 -56.2275 43.7325 8.0325
929 1 -52.6575 43.7325 8.0325
871 1 -78.54 44.625 8.925
878 1 -74.97 44.625 8.925
886 1 -71.4 44.625 8.925
894 1 -67.83 44.625 8.925
902 1 -64.26 44.625 8.925
910 1 -60.69 44.625 8.925
918 1 -57.12 44.625 8.925
926 1 -53.55 44.625 8.925
870 1 -79.4325 45.5175 8.0325
876 1 -75.8625 45.5175 8.0325
884 1 -72.2925 45.5175 8.0325
892 1 -68.7225 45.5175 8.0325
900 1 -65.1525 45.5175 8.0325
908 1 -61.5825 45.5175 8.0325
916 1 -58.0125 45.5175 8.0325
924 1 -54.4425 45.5175 8.0325
932 1 -50.8725 45.5175 8.0325
934 1 -80.325 46.41 8.925
941 1 -76.755 46.41 8.925
949 1 -73.185 46.41 8.925
957 1 -69.615 46.41 8.925
965 1 -66.045 46.41 8.925
973 1 -62.475 46.41 8.925
981 1 -58.905 46.41 8.925
989 1 -55.335 46.41 8.925
997 1 -51.765 46.41 8.925
933 1 -82.11 48.195 8.925
940 1 -78.54 48.195 8.925
943 1 -77.6475 47.3025 8.0325
948 1 -74.97 48.195 8.925
951 1 -74.0775 47.3025 8.0325
956 1 -71.4 48.195 8.925
959 1 -70.5075 47.3025 8.0325
964 1 -67.83 48.195 8.925
967 1 -66.9375 47.3025 8.0325
972 1 -64.26 48.195 8.925
975 1 -63.3675 47.3025 8.0325
980 1 -60.69 48.195 8.925
983 1 -59.7975 47.3025 8.0325
988 1 -57.12 48.195 8.925
991 1 -56.2275 47.3025 8.0325
996 1 -53.55 48.195 8.925
999 1 -52.6575 47.3025 8.0325
938 1 -79.4325 49.0875 8.0325
946 1 -75.8625 49.0875 8.0325
954 1 -72.2925 49.0875 8.0325
962 1 -68.7225 49.0875 8.0325
970 1 -65.1525 49.0875 8.0325
978 1 -61.5825 49.0875 8.0325
986 1 -58.0125 49.0875 8.0325
994 1 -54.4425 49.0875 8.0325
1002 1 -50.8725 49.0875 8.0325
1007 1 -80.325 49.98 8.925
1013 1 -76.755 49.98 8.925
1019 1 -73.185 49.98 8.925
1025 1 -69.615 49.98 8.925
1031 1 -66.045 49.98 8.925
1037 1 -62.475 49.98 8.925
1043 1 -58.905 49.98 8.925
1049 1 -55.335 49.98 8.925
1055 1 -51.765 49.98 8.925
1009 1 -81.2175 50.8725 8.0325
1015 1 -77.6475 50.8725 8.0325
1021 1 -74.0775 50.8725 8.0325
1027 1 -70.5075 50.8725 8.0325
1033 1 -66.9375 50.8725 8.0325
1039 1 -63.3675 50.8725 8.0325
1045 1 -59.7975 50.8725 8.0325
1051 1 -56.2275 50.8725 8.0325
1057 1 -52.6575 50.8725 8.0325
1006 1 -82.11 51.765 8.925
1012 1 -78.54 51.765 8.925
1018 1 -74.97 51.765 8.925
1024 1 -71.4 51.765 8.925
1030 1 -67.83 51.765 8.925
1036 1 -64.26 51.765 8.925
1042 1 -60.69 51.765 8.925
1048 1 -57.12 51.765 8.925
1054 1 -53.55 51.765 8.925
774 1 -54.4425 33.0225 9.8175
779 1 -50.8725 33.0225 9.8175
769 1 -63.3675 34.8075 9.8175
770 1 -59.7975 34.8075 9.8175
773 1 -56.2275 34.8075 9.8175
778 1 -52.6575 34.8075 9.8175
786 1 -65.1525 36.5925 9.8175
793 1 -61.5825 36.5925 9.8175
801 1 -58.0125 36.5925 9.8175
809 1 -54.4425 36.5925 9.8175
817 1 -50.8725 36.5925 9.8175
781 1 -70.5075 38.3775 9.8175
785 1 -66.9375 38.3775 9.8175
792 1 -63.3675 38.3775 9.8175
800 1 -59.7975 38.3775 9.8175
808 1 -56.2275 38.3775 9.8175
816 1 -52.6575 38.3775 9.8175
821 1 -72.2925 40.1625 9.8175
828 1 -68.7225 40.1625 9.8175
836 1 -65.1525 40.1625 9.8175
844 1 -61.5825 40.1625 9.8175
852 1 -58.0125 40.1625 9.8175
860 1 -54.4425 40.1625 9.8175
868 1 -50.8725 40.1625 9.8175
820 1 -74.0775 41.9475 9.8175
827 1 -70.5075 41.9475 9.8175
835 1 -66.9375 41.9475 9.8175
843 1 -63.3675 41.9475 9.8175
851 1 -59.7975 41.9475 9.8175
859 1 -56.2275 41.9475 9.8175
867 1 -52.6575 41.9475 9.8175
875 1 -75.8625 43.7325 9.8175
883 1 -72.2925 43.7325 9.8175
891 1 -68.7225 43.7325 9.8175
899 1 -65.1525 43.7325 9.8175
907 1 -61.5825 43.7325 9.8175
915 1 -58.0125 43.7325 9.8175
923 1 -54.4425 43.7325 9.8175
931 1 -50.8725 43.7325 9.8175
874 1 -77.6475 45.5175 9.8175
882 1 -74.0775 45.5175 9.8175
890 1 -70.5075 45.5175 9.8175
898 1 -66.9375 45.5175 9.8175
906 1 -63.3675 45.5175 9.8175
914 1 -59.7975 45.5175 9.8175
922 1 -56.2275 45.5175 9.8175
930 1 -52.6575 45.5175 9.8175
937 1 -79.4325 47.3025 9.8175
945 1 -75.8625 47.3025 9.8175
953 1 -72.2925 47.3025 9.8175
961 1 -68.7225 47.3025 9.8175
969 1 -65.1525 47.3025 9.8175
977 1 -61.5825 47.3025 9.8175
985 1 -58.0125 47.3025 9.8175
993 1 -54.4425 47.3025 9.8175
1001 1 -50.8725 47.3025 9.8175
936 1 -81.2175 49.0875 9.8175
944 1 -77.6475 49.0875 9.8175
952 1 -74.0775 49.0875 9.8175
960 1 -70.5075 49.0875 9.8175
968 1 -66.9375 49.0875 9.8175
976 1 -63.3675 49.0875 9.8175
984 1 -59.7975 49.0875 9.8175
992 1 -56.2275 49.0875 9.8175
1000 1 -52.6575 49.0875 9.8175
1004 1 -83.0025 50.8725 9.8175
1010 1 -79.4325 50.8725 9.8175
1016 1 -75.8625 50.8725 9.8175
1022 1 -72.2925 50.8725 9.8175
1028 1 -68.7225 50.8725 9.8175
1034 1 -65.1525 50.8725 9.8175
1040 1 -61.5825 50.8725 9.8175
1046 1 -58.0125 50.8725 9.8175
1052 1 -54.4425 50.8725 9.8175
1058 1 -50.8725 50.8725 9.8175
1063 1 -58.905 33.915 10.71
1069 1 -55.335 33.915 10.71
1076 1 -51.765 33.915 10.71
1094 1 -64.26 35.7 10.71
1102 1 -60.69 35.7 10.71
1110 1 -57.12 35.7 10.71
1118 1 -53.55 35.7 10.71