LAMMPS (29 Sep 2021 - Update 3)
OMP_NUM_THREADS environment is not set. Defaulting to 1 thread. (src/comm.cpp:98)
  using 1 OpenMP thread(s) per MPI task
# in file for crystal-moxiao

echo		screen
Lattice spacing in x,y,z = 3.5700000 3.5700000 3.5700000
Created orthogonal box = (-95.000000 30.000000 -20.000000) to (-5.0000000 120.00000 25.000000)
  2 by 4 by 2 MPI processor grid
Created 34057 atoms
  using box units in orthogonal box = (-95.000000 30.000000 -20.000000) to (-5.0000000 120.00000 25.000000)
  create_atoms CPU = 0.003 seconds
34057 atoms in group JGS
System init for write_data ...
Neighbor list info ...
  update every 2 steps, delay 10 steps, check yes
  max neighbors/atom: 2000, page size: 100000
  master list distance cutoff = 2.1
  ghost atom cutoff = 2.1
  binsize = 1.05, bins = 86 86 43
  1 neighbor lists, perpetual/occasional/extra = 1 0 0
  (1) pair soft, perpetual
      attributes: half, newton on
      pair build: half/bin/atomonly/newton
      stencil: half/bin/3d
      bin: standard
WARNING: Not all mixed pair coeffs generated from mixing. Use write_data with 'pair ij' option to store all pair coeffs. (src/write_data.cpp:312)
Per MPI rank memory allocation (min/avg/max) = 4.610 | 4.649 | 4.684 Mbytes
Step Temp E_pair E_mol TotEng Press 
       0            0            0            0            0            0 
       1            0            0            0            0            0 
Loop time of 0.0188824 on 16 procs for 1 steps with 34057 atoms

Performance: 4.576 ns/day, 5.245 hours/ns, 52.959 timesteps/s
150.0% CPU use with 16 MPI tasks x 1 OpenMP threads

MPI task timing breakdown:
Section |  min time  |  avg time  |  max time  |%varavg| %total
---------------------------------------------------------------
Pair    | 8.4e-06    | 2.655e-05  | 4.57e-05   |   0.0 |  0.14
Neigh   | 0          | 0          | 0          |   0.0 |  0.00
Comm    | 9.28e-05   | 0.00018782 | 0.0002801  |   0.0 |  0.99
Output  | 0.018541   | 0.018566   | 0.018612   |   0.0 | 98.33
Modify  | 1.31e-05   | 5.3038e-05 | 0.0001007  |   0.0 |  0.28
Other   |            | 4.872e-05  |            |       |  0.26

Nlocal:        2128.56 ave        3923 max         457 min
Histogram: 4 0 0 0 8 0 0 0 0 4
Nghost:        881.312 ave        1335 max         475 min
Histogram: 4 0 2 2 0 1 2 2 1 2
Neighs:         0.00000 ave           0 max           0 min
Histogram: 16 0 0 0 0 0 0 0 0 0

Total # of neighbors = 0
Ave neighs/atom = 0.0000000
Neighbor list builds = 0
Dangerous builds = 0
Total wall time: 0:00:00
