ITEM: TIMESTEP
0
ITEM: NUMBER OF ATOMS
308
ITEM: BOX BOUNDS pp pp pp
0.0000000000000000e+00 4.4000000000000000e+01
0.0000000000000000e+00 1.4000000000000000e+01
-1.0000000000000000e+00 1.0000000000000000e+00
ITEM: ATOMS id type xs ys zs
1 1 0.0113636 0.0357143 0.5
3 1 0.0568182 0.0357143 0.5
5 1 0.102273 0.0357143 0.5
7 1 0.147727 0.0357143 0.5
9 1 0.193182 0.0357143 0.5
11 1 0.238636 0.0357143 0.5
2 1 0.0340909 0.107143 0.5
12 1 0.0113636 0.178571 0.5
14 1 0.0568182 0.178571 0.5
4 1 0.0795455 0.107143 0.5
16 2 0.102273 0.178571 0.5
6 1 0.125 0.107143 0.5
8 1 0.170455 0.107143 0.5
18 2 0.147727 0.178571 0.5
20 2 0.193182 0.178571 0.5
10 1 0.215909 0.107143 0.5
22 1 0.238636 0.178571 0.5
13 1 0.0340909 0.25 0.5
15 1 0.0795455 0.25 0.5
17 2 0.125 0.25 0.5
19 2 0.170455 0.25 0.5
21 2 0.215909 0.25 0.5
23 1 0.0113636 0.321429 0.5
24 1 0.0340909 0.392857 0.5
25 1 0.0568182 0.321429 0.5
26 1 0.0795455 0.392857 0.5
27 2 0.102273 0.321429 0.5
28 2 0.125 0.392857 0.5
29 1 0.147727 0.321429 0.5
30 1 0.170455 0.392857 0.5
31 1 0.193182 0.321429 0.5
32 1 0.215909 0.392857 0.5
33 1 0.238636 0.321429 0.5
34 1 0.0113636 0.464286 0.5
36 1 0.0568182 0.464286 0.5
38 2 0.102273 0.464286 0.5
40 1 0.147727 0.464286 0.5
42 1 0.193182 0.464286 0.5
44 1 0.238636 0.464286 0.5
35 1 0.0340909 0.535714 0.5
37 1 0.0795455 0.535714 0.5
39 2 0.125 0.535714 0.5
41 1 0.170455 0.535714 0.5
43 1 0.215909 0.535714 0.5
45 1 0.0113636 0.607143 0.5
46 1 0.0340909 0.678571 0.5
47 1 0.0568182 0.607143 0.5
48 1 0.0795455 0.678571 0.5
49 2 0.102273 0.607143 0.5
50 2 0.125 0.678571 0.5
51 1 0.147727 0.607143 0.5
52 1 0.170455 0.678571 0.5
53 1 0.193182 0.607143 0.5
54 1 0.215909 0.678571 0.5
55 1 0.238636 0.607143 0.5
56 1 0.0113636 0.75 0.5
58 1 0.0568182 0.75 0.5
60 2 0.102273 0.75 0.5
62 2 0.147727 0.75 0.5
64 2 0.193182 0.75 0.5
66 1 0.238636 0.75 0.5
57 1 0.0340909 0.821429 0.5
67 1 0.0113636 0.892857 0.5
69 1 0.0568182 0.892857 0.5
59 1 0.0795455 0.821429 0.5
71 1 0.102273 0.892857 0.5
61 2 0.125 0.821429 0.5
63 2 0.170455 0.821429 0.5
73 1 0.147727 0.892857 0.5
75 1 0.193182 0.892857 0.5
65 2 0.215909 0.821429 0.5
77 1 0.238636 0.892857 0.5
68 1 0.0340909 0.964286 0.5
70 1 0.0795455 0.964286 0.5
72 1 0.125 0.964286 0.5
74 1 0.170455 0.964286 0.5
76 1 0.215909 0.964286 0.5
79 1 0.284091 0.0357143 0.5
81 1 0.329545 0.0357143 0.5
83 1 0.375 0.0357143 0.5
85 1 0.420455 0.0357143 0.5
87 1 0.465909 0.0357143 0.5
78 1 0.261364 0.107143 0.5
90 2 0.284091 0.178571 0.5
80 1 0.306818 0.107143 0.5
82 1 0.352273 0.107143 0.5
92 2 0.329545 0.178571 0.5
94 2 0.375 0.178571 0.5
84 1 0.397727 0.107143 0.5
96 2 0.420455 0.178571 0.5
86 1 0.443182 0.107143 0.5
88 1 0.488636 0.107143 0.5
98 1 0.465909 0.178571 0.5
89 1 0.261364 0.25 0.5
91 2 0.306818 0.25 0.5
93 2 0.352273 0.25 0.5
95 2 0.397727 0.25 0.5
97 2 0.443182 0.25 0.5
99 1 0.488636 0.25 0.5
100 1 0.261364 0.392857 0.5
101 2 0.284091 0.321429 0.5
102 2 0.306818 0.392857 0.5
103 1 0.329545 0.321429 0.5
104 1 0.352273 0.392857 0.5
105 2 0.375 0.321429 0.5
106 2 0.397727 0.392857 0.5
107 1 0.420455 0.321429 0.5
108 1 0.443182 0.392857 0.5
109 1 0.465909 0.321429 0.5
110 1 0.488636 0.392857 0.5
112 2 0.284091 0.464286 0.5
114 1 0.329545 0.464286 0.5
116 2 0.375 0.464286 0.5
118 1 0.420455 0.464286 0.5
120 1 0.465909 0.464286 0.5
111 1 0.261364 0.535714 0.5
113 2 0.306818 0.535714 0.5
115 1 0.352273 0.535714 0.5
117 2 0.397727 0.535714 0.5
119 1 0.443182 0.535714 0.5
121 1 0.488636 0.535714 0.5
122 1 0.261364 0.678571 0.5
123 2 0.284091 0.607143 0.5
124 2 0.306818 0.678571 0.5
125 1 0.329545 0.607143 0.5
126 1 0.352273 0.678571 0.5
127 2 0.375 0.607143 0.5
128 2 0.397727 0.678571 0.5
129 1 0.420455 0.607143 0.5
130 1 0.443182 0.678571 0.5
131 1 0.465909 0.607143 0.5
132 1 0.488636 0.678571 0.5
134 2 0.284091 0.75 0.5
136 2 0.329545 0.75 0.5
138 2 0.375 0.75 0.5
140 1 0.420455 0.75 0.5
142 1 0.465909 0.75 0.5
133 1 0.261364 0.821429 0.5
145 1 0.284091 0.892857 0.5
135 2 0.306818 0.821429 0.5
137 2 0.352273 0.821429 0.5
147 1 0.329545 0.892857 0.5
149 1 0.375 0.892857 0.5
139 2 0.397727 0.821429 0.5
151 1 0.420455 0.892857 0.5
141 1 0.443182 0.821429 0.5
143 1 0.488636 0.821429 0.5
153 1 0.465909 0.892857 0.5
144 1 0.261364 0.964286 0.5
146 1 0.306818 0.964286 0.5
148 1 0.352273 0.964286 0.5
150 1 0.397727 0.964286 0.5
152 1 0.443182 0.964286 0.5
154 1 0.488636 0.964286 0.5
155 1 0.511364 0.0357143 0.5
157 1 0.556818 0.0357143 0.5
159 1 0.602273 0.0357143 0.5
161 1 0.647727 0.0357143 0.5
163 1 0.693182 0.0357143 0.5
165 1 0.738636 0.0357143 0.5
156 1 0.534091 0.107143 0.5
166 2 0.511364 0.178571 0.5
168 1 0.556818 0.178571 0.5
158 1 0.579545 0.107143 0.5
170 2 0.602273 0.178571 0.5
160 1 0.625 0.107143 0.5
162 1 0.670455 0.107143 0.5
172 1 0.647727 0.178571 0.5
174 1 0.693182 0.178571 0.5
164 1 0.715909 0.107143 0.5
176 1 0.738636 0.178571 0.5
167 2 0.534091 0.25 0.5
169 1 0.579545 0.25 0.5
171 2 0.625 0.25 0.5
173 1 0.670455 0.25 0.5
175 1 0.715909 0.25 0.5
177 2 0.511364 0.321429 0.5
178 2 0.534091 0.392857 0.5
179 1 0.556818 0.321429 0.5
180 1 0.579545 0.392857 0.5
181 2 0.602273 0.321429 0.5
182 2 0.625 0.392857 0.5
183 1 0.647727 0.321429 0.5
184 1 0.670455 0.392857 0.5
185 1 0.693182 0.321429 0.5
186 1 0.715909 0.392857 0.5
187 1 0.738636 0.321429 0.5
188 2 0.511364 0.464286 0.5
190 1 0.556818 0.464286 0.5
192 2 0.602273 0.464286 0.5
194 2 0.647727 0.464286 0.5
196 2 0.693182 0.464286 0.5
198 1 0.738636 0.464286 0.5
189 2 0.534091 0.535714 0.5
191 1 0.579545 0.535714 0.5
193 2 0.625 0.535714 0.5
195 2 0.670455 0.535714 0.5
197 2 0.715909 0.535714 0.5
199 2 0.511364 0.607143 0.5
200 2 0.534091 0.678571 0.5
201 1 0.556818 0.607143 0.5
202 1 0.579545 0.678571 0.5
203 2 0.602273 0.607143 0.5
204 2 0.625 0.678571 0.5
205 1 0.647727 0.607143 0.5
206 1 0.670455 0.678571 0.5
207 2 0.693182 0.607143 0.5
208 2 0.715909 0.678571 0.5
209 1 0.738636 0.607143 0.5
210 2 0.511364 0.75 0.5
212 1 0.556818 0.75 0.5
214 2 0.602273 0.75 0.5
216 2 0.647727 0.75 0.5
218 2 0.693182 0.75 0.5
220 1 0.738636 0.75 0.5
211 2 0.534091 0.821429 0.5
221 1 0.511364 0.892857 0.5
223 1 0.556818 0.892857 0.5
213 1 0.579545 0.821429 0.5
225 1 0.602273 0.892857 0.5
215 2 0.625 0.821429 0.5
217 2 0.670455 0.821429 0.5
227 1 0.647727 0.892857 0.5
229 1 0.693182 0.892857 0.5
219 2 0.715909 0.821429 0.5
231 1 0.738636 0.892857 0.5
222 1 0.534091 0.964286 0.5
224 1 0.579545 0.964286 0.5
226 1 0.625 0.964286 0.5
228 1 0.670455 0.964286 0.5
230 1 0.715909 0.964286 0.5
233 1 0.784091 0.0357143 0.5
235 1 0.829545 0.0357143 0.5
237 1 0.875 0.0357143 0.5
239 1 0.920455 0.0357143 0.5
241 1 0.965909 0.0357143 0.5
232 1 0.761364 0.107143 0.5
244 2 0.784091 0.178571 0.5
234 1 0.806818 0.107143 0.5
236 1 0.852273 0.107143 0.5
246 2 0.829545 0.178571 0.5
248 2 0.875 0.178571 0.5
238 1 0.897727 0.107143 0.5
250 1 0.920455 0.178571 0.5
240 1 0.943182 0.107143 0.5
242 1 0.988636 0.107143 0.5
252 1 0.965909 0.178571 0.5
243 1 0.761364 0.25 0.5
245 2 0.806818 0.25 0.5
247 2 0.852273 0.25 0.5
249 2 0.897727 0.25 0.5
251 1 0.943182 0.25 0.5
253 1 0.988636 0.25 0.5
254 1 0.761364 0.392857 0.5
255 2 0.784091 0.321429 0.5
256 2 0.806818 0.392857 0.5
257 1 0.829545 0.321429 0.5
258 1 0.852273 0.392857 0.5
259 1 0.875 0.321429 0.5
260 1 0.897727 0.392857 0.5
261 1 0.920455 0.321429 0.5
262 1 0.943182 0.392857 0.5
263 1 0.965909 0.321429 0.5
264 1 0.988636 0.392857 0.5
266 2 0.784091 0.464286 0.5
268 1 0.829545 0.464286 0.5
270 1 0.875 0.464286 0.5
272 1 0.920455 0.464286 0.5
274 1 0.965909 0.464286 0.5
265 1 0.761364 0.535714 0.5
267 2 0.806818 0.535714 0.5
269 1 0.852273 0.535714 0.5
271 1 0.897727 0.535714 0.5
273 1 0.943182 0.535714 0.5
275 1 0.988636 0.535714 0.5
276 1 0.761364 0.678571 0.5
277 2 0.784091 0.607143 0.5
278 2 0.806818 0.678571 0.5
279 1 0.829545 0.607143 0.5
280 1 0.852273 0.678571 0.5
281 1 0.875 0.607143 0.5
282 1 0.897727 0.678571 0.5
283 1 0.920455 0.607143 0.5
284 1 0.943182 0.678571 0.5
285 1 0.965909 0.607143 0.5
286 1 0.988636 0.678571 0.5
288 2 0.784091 0.75 0.5
290 2 0.829545 0.75 0.5
292 2 0.875 0.75 0.5
294 1 0.920455 0.75 0.5
296 1 0.965909 0.75 0.5
287 1 0.761364 0.821429 0.5
299 1 0.784091 0.892857 0.5
289 2 0.806818 0.821429 0.5
291 2 0.852273 0.821429 0.5
301 1 0.829545 0.892857 0.5
303 1 0.875 0.892857 0.5
293 2 0.897727 0.821429 0.5
305 1 0.920455 0.892857 0.5
295 1 0.943182 0.821429 0.5
297 1 0.988636 0.821429 0.5
307 1 0.965909 0.892857 0.5
298 1 0.761364 0.964286 0.5
300 1 0.806818 0.964286 0.5
302 1 0.852273 0.964286 0.5
304 1 0.897727 0.964286 0.5
306 1 0.943182 0.964286 0.5
308 1 0.988636 0.964286 0.5
ITEM: TIMESTEP
20
ITEM: NUMBER OF ATOMS
308
ITEM: BOX BOUNDS pp pp pp
0.0000000000000000e+00 4.4000000000000000e+01
0.0000000000000000e+00 1.4000000000000000e+01
-1.0000000000000000e+00 1.0000000000000000e+00
ITEM: ATOMS id type xs ys zs
1 1 0.0113636 0.0357143 0.5
3 1 0.0568182 0.0357143 0.5
5 1 0.102273 0.0357143 0.5
7 1 0.147727 0.0357143 0.5
9 1 0.193182 0.0357143 0.5
11 1 0.238636 0.0357143 0.5
2 1 0.0340909 0.107143 0.5
12 1 0.0113636 0.178571 0.5
14 1 0.0568182 0.178571 0.5
4 1 0.0795455 0.107143 0.5
16 2 0.102273 0.178571 0.5
6 1 0.125 0.107143 0.5
8 1 0.170455 0.107143 0.5
18 2 0.147727 0.178571 0.5
20 2 0.193182 0.178571 0.5
10 1 0.215909 0.107143 0.5
22 1 0.238636 0.178571 0.5
13 1 0.0340909 0.25 0.5
15 1 0.0795455 0.25 0.5
17 2 0.125 0.25 0.5
19 2 0.170455 0.25 0.5
21 2 0.215909 0.25 0.5
23 1 0.0113636 0.321429 0.5
24 1 0.0340909 0.392857 0.5
25 1 0.0568182 0.321429 0.5
26 1 0.0795455 0.392857 0.5
27 2 0.102273 0.321429 0.5
28 2 0.125 0.392857 0.5
29 1 0.147727 0.321429 0.5
30 1 0.170455 0.392857 0.5
31 1 0.193182 0.321429 0.5
32 1 0.215909 0.392857 0.5
33 1 0.238636 0.321429 0.5
34 1 0.0113636 0.464286 0.5
36 1 0.0568182 0.464286 0.5
38 2 0.102273 0.464286 0.5
40 1 0.147727 0.464286 0.5
42 1 0.193182 0.464286 0.5
44 1 0.238636 0.464286 0.5
35 1 0.0340909 0.535714 0.5
37 1 0.0795455 0.535714 0.5
39 2 0.125 0.535714 0.5
41 1 0.170455 0.535714 0.5
43 1 0.215909 0.535714 0.5
45 1 0.0113636 0.607143 0.5
46 1 0.0340909 0.678571 0.5
47 1 0.0568182 0.607143 0.5
48 1 0.0795455 0.678571 0.5
49 2 0.102273 0.607143 0.5
50 2 0.125 0.678571 0.5
51 1 0.147727 0.607143 0.5
52 1 0.170455 0.678571 0.5
53 1 0.193182 0.607143 0.5
54 1 0.215909 0.678571 0.5
55 1 0.238636 0.607143 0.5
56 1 0.0113636 0.75 0.5
58 1 0.0568182 0.75 0.5
60 2 0.102273 0.75 0.5
62 2 0.147727 0.75 0.5
64 2 0.193182 0.75 0.5
66 1 0.238636 0.75 0.5
57 1 0.0340909 0.821429 0.5
67 1 0.0113636 0.892857 0.5
69 1 0.0568182 0.892857 0.5
59 1 0.0795455 0.821429 0.5
71 1 0.102273 0.892857 0.5
61 2 0.125 0.821429 0.5
63 2 0.170455 0.821429 0.5
73 1 0.147727 0.892857 0.5
75 1 0.193182 0.892857 0.5
65 2 0.215909 0.821429 0.5
77 1 0.238636 0.892857 0.5
68 1 0.0340909 0.964286 0.5
70 1 0.0795455 0.964286 0.5
72 1 0.125 0.964286 0.5
74 1 0.170455 0.964286 0.5
76 1 0.215909 0.964286 0.5
79 1 0.284091 0.0357143 0.5
81 1 0.329545 0.0357143 0.5
83 1 0.375 0.0357143 0.5
85 1 0.420455 0.0357143 0.5
87 1 0.465909 0.0357143 0.5
78 1 0.261364 0.107143 0.5
90 2 0.284091 0.178571 0.5
80 1 0.306818 0.107143 0.5
82 1 0.352273 0.107143 0.5
92 2 0.329545 0.178571 0.5
94 2 0.375 0.178571 0.5
84 1 0.397727 0.107143 0.5
96 2 0.420455 0.178571 0.5
86 1 0.443182 0.107143 0.5
88 1 0.488636 0.107143 0.5
98 1 0.465909 0.178571 0.5
89 1 0.261364 0.25 0.5
91 2 0.306818 0.25 0.5
93 2 0.352273 0.25 0.5
95 2 0.397727 0.25 0.5
97 2 0.443182 0.25 0.5
99 1 0.488636 0.25 0.5
100 1 0.261364 0.392857 0.5
101 2 0.284091 0.321429 0.5
102 2 0.306818 0.392857 0.5
103 1 0.329545 0.321429 0.5
104 1 0.352273 0.392857 0.5
105 2 0.375 0.321429 0.5
106 2 0.397727 0.392857 0.5
107 1 0.420455 0.321429 0.5
108 1 0.443182 0.392857 0.5
109 1 0.465909 0.321429 0.5
110 1 0.488636 0.392857 0.5
112 2 0.284091 0.464286 0.5
114 1 0.329545 0.464286 0.5
116 2 0.375 0.464286 0.5
118 1 0.420455 0.464286 0.5
120 1 0.465909 0.464286 0.5
111 1 0.261364 0.535714 0.5
113 2 0.306818 0.535714 0.5
115 1 0.352273 0.535714 0.5
117 2 0.397727 0.535714 0.5
119 1 0.443182 0.535714 0.5
121 1 0.488636 0.535714 0.5
122 1 0.261364 0.678571 0.5
123 2 0.284091 0.607143 0.5
124 2 0.306818 0.678571 0.5
125 1 0.329545 0.607143 0.5
126 1 0.352273 0.678571 0.5
127 2 0.375 0.607143 0.5
128 2 0.397727 0.678571 0.5
129 1 0.420455 0.607143 0.5
130 1 0.443182 0.678571 0.5
131 1 0.465909 0.607143 0.5
132 1 0.488636 0.678571 0.5
134 2 0.284091 0.75 0.5
136 2 0.329545 0.75 0.5
138 2 0.375 0.75 0.5
140 1 0.420455 0.75 0.5
142 1 0.465909 0.75 0.5
133 1 0.261364 0.821429 0.5
145 1 0.284091 0.892857 0.5
135 2 0.306818 0.821429 0.5
137 2 0.352273 0.821429 0.5
147 1 0.329545 0.892857 0.5
149 1 0.375 0.892857 0.5
139 2 0.397727 0.821429 0.5
151 1 0.420455 0.892857 0.5
141 1 0.443182 0.821429 0.5
143 1 0.488636 0.821429 0.5
153 1 0.465909 0.892857 0.5
144 1 0.261364 0.964286 0.5
146 1 0.306818 0.964286 0.5
148 1 0.352273 0.964286 0.5
150 1 0.397727 0.964286 0.5
152 1 0.443182 0.964286 0.5
154 1 0.488636 0.964286 0.5
155 1 0.511364 0.0357143 0.5
157 1 0.556818 0.0357143 0.5
159 1 0.602273 0.0357143 0.5
161 1 0.647727 0.0357143 0.5
163 1 0.693182 0.0357143 0.5
165 1 0.738636 0.0357143 0.5
156 1 0.534091 0.107143 0.5
166 2 0.511364 0.178571 0.5
168 1 0.556818 0.178571 0.5
158 1 0.579545 0.107143 0.5
170 2 0.602273 0.178571 0.5
160 1 0.625 0.107143 0.5
162 1 0.670455 0.107143 0.5
172 1 0.647727 0.178571 0.5
174 1 0.693182 0.178571 0.5
164 1 0.715909 0.107143 0.5
176 1 0.738636 0.178571 0.5
167 2 0.534091 0.25 0.5
169 1 0.579545 0.25 0.5
171 2 0.625 0.25 0.5
173 1 0.670455 0.25 0.5
175 1 0.715909 0.25 0.5
177 2 0.511364 0.321429 0.5
178 2 0.534091 0.392857 0.5
179 1 0.556818 0.321429 0.5
180 1 0.579545 0.392857 0.5
181 2 0.602273 0.321429 0.5
182 2 0.625 0.392857 0.5
183 1 0.647727 0.321429 0.5
184 1 0.670455 0.392857 0.5
185 1 0.693182 0.321429 0.5
186 1 0.715909 0.392857 0.5
187 1 0.738636 0.321429 0.5
188 2 0.511364 0.464286 0.5
190 1 0.556818 0.464286 0.5
192 2 0.602273 0.464286 0.5
194 2 0.647727 0.464286 0.5
196 2 0.693182 0.464286 0.5
198 1 0.738636 0.464286 0.5
189 2 0.534091 0.535714 0.5
191 1 0.579545 0.535714 0.5
193 2 0.625 0.535714 0.5
195 2 0.670455 0.535714 0.5
197 2 0.715909 0.535714 0.5
199 2 0.511364 0.607143 0.5
200 2 0.534091 0.678571 0.5
201 1 0.556818 0.607143 0.5
202 1 0.579545 0.678571 0.5
203 2 0.602273 0.607143 0.5
204 2 0.625 0.678571 0.5
205 1 0.647727 0.607143 0.5
206 1 0.670455 0.678571 0.5
207 2 0.693182 0.607143 0.5
208 2 0.715909 0.678571 0.5
209 1 0.738636 0.607143 0.5
210 2 0.511364 0.75 0.5
212 1 0.556818 0.75 0.5
214 2 0.602273 0.75 0.5
216 2 0.647727 0.75 0.5
218 2 0.693182 0.75 0.5
220 1 0.738636 0.75 0.5
211 2 0.534091 0.821429 0.5
221 1 0.511364 0.892857 0.5
223 1 0.556818 0.892857 0.5
213 1 0.579545 0.821429 0.5
225 1 0.602273 0.892857 0.5
215 2 0.625 0.821429 0.5
217 2 0.670455 0.821429 0.5
227 1 0.647727 0.892857 0.5
229 1 0.693182 0.892857 0.5
219 2 0.715909 0.821429 0.5
231 1 0.738636 0.892857 0.5
222 1 0.534091 0.964286 0.5
224 1 0.579545 0.964286 0.5
226 1 0.625 0.964286 0.5
228 1 0.670455 0.964286 0.5
230 1 0.715909 0.964286 0.5
233 1 0.784091 0.0357143 0.5
235 1 0.829545 0.0357143 0.5
237 1 0.875 0.0357143 0.5
239 1 0.920455 0.0357143 0.5
241 1 0.965909 0.0357143 0.5
232 1 0.761364 0.107143 0.5
244 2 0.784091 0.178571 0.5
234 1 0.806818 0.107143 0.5
236 1 0.852273 0.107143 0.5
246 2 0.829545 0.178571 0.5
248 2 0.875 0.178571 0.5
238 1 0.897727 0.107143 0.5
250 1 0.920455 0.178571 0.5
240 1 0.943182 0.107143 0.5
242 1 0.988636 0.107143 0.5
252 1 0.965909 0.178571 0.5
243 1 0.761364 0.25 0.5
245 2 0.806818 0.25 0.5
247 2 0.852273 0.25 0.5
249 2 0.897727 0.25 0.5
251 1 0.943182 0.25 0.5
253 1 0.988636 0.25 0.5
254 1 0.761364 0.392857 0.5
255 2 0.784091 0.321429 0.5
256 2 0.806818 0.392857 0.5
257 1 0.829545 0.321429 0.5
258 1 0.852273 0.392857 0.5
259 1 0.875 0.321429 0.5
260 1 0.897727 0.392857 0.5
261 1 0.920455 0.321429 0.5
262 1 0.943182 0.392857 0.5
263 1 0.965909 0.321429 0.5
264 1 0.988636 0.392857 0.5
266 2 0.784091 0.464286 0.5
268 1 0.829545 0.464286 0.5
270 1 0.875 0.464286 0.5
272 1 0.920455 0.464286 0.5
274 1 0.965909 0.464286 0.5
265 1 0.761364 0.535714 0.5
267 2 0.806818 0.535714 0.5
269 1 0.852273 0.535714 0.5
271 1 0.897727 0.535714 0.5
273 1 0.943182 0.535714 0.5
275 1 0.988636 0.535714 0.5
276 1 0.761364 0.678571 0.5
277 2 0.784091 0.607143 0.5
278 2 0.806818 0.678571 0.5
279 1 0.829545 0.607143 0.5
280 1 0.852273 0.678571 0.5
281 1 0.875 0.607143 0.5
282 1 0.897727 0.678571 0.5
283 1 0.920455 0.607143 0.5
284 1 0.943182 0.678571 0.5
285 1 0.965909 0.607143 0.5
286 1 0.988636 0.678571 0.5
288 2 0.784091 0.75 0.5
290 2 0.829545 0.75 0.5
292 2 0.875 0.75 0.5
294 1 0.920455 0.75 0.5
296 1 0.965909 0.75 0.5
287 1 0.761364 0.821429 0.5
299 1 0.784091 0.892857 0.5
289 2 0.806818 0.821429 0.5
291 2 0.852273 0.821429 0.5
301 1 0.829545 0.892857 0.5
303 1 0.875 0.892857 0.5
293 2 0.897727 0.821429 0.5
305 1 0.920455 0.892857 0.5
295 1 0.943182 0.821429 0.5
297 1 0.988636 0.821429 0.5
307 1 0.965909 0.892857 0.5
298 1 0.761364 0.964286 0.5
300 1 0.806818 0.964286 0.5
302 1 0.852273 0.964286 0.5
304 1 0.897727 0.964286 0.5
306 1 0.943182 0.964286 0.5
308 1 0.988636 0.964286 0.5
ITEM: TIMESTEP
40
ITEM: NUMBER OF ATOMS
308
ITEM: BOX BOUNDS pp pp pp
0.0000000000000000e+00 4.4000000000000000e+01
0.0000000000000000e+00 1.4000000000000000e+01
-1.0000000000000000e+00 1.0000000000000000e+00
ITEM: ATOMS id type xs ys zs
1 1 0.0113636 0.0357143 0.5
3 1 0.0568182 0.0357143 0.5
5 1 0.102273 0.0357143 0.5
7 1 0.147727 0.0357143 0.5
9 1 0.193182 0.0357143 0.5
11 1 0.238636 0.0357143 0.5
2 1 0.0340909 0.107143 0.5
12 1 0.0113636 0.178571 0.5
14 1 0.0568182 0.178571 0.5
4 1 0.0795455 0.107143 0.5
16 2 0.102273 0.178571 0.5
6 1 0.125 0.107143 0.5
8 1 0.170455 0.107143 0.5
18 2 0.147727 0.178571 0.5
20 2 0.193182 0.178571 0.5
10 1 0.215909 0.107143 0.5
22 1 0.238636 0.178571 0.5
13 1 0.0340909 0.25 0.5
15 1 0.0795455 0.25 0.5
17 2 0.125 0.25 0.5
19 2 0.170455 0.25 0.5
21 2 0.215909 0.25 0.5
23 1 0.0113636 0.321429 0.5
24 1 0.0340909 0.392857 0.5
25 1 0.0568182 0.321429 0.5
26 1 0.0795455 0.392857 0.5
27 2 0.102273 0.321429 0.5
28 2 0.125 0.392857 0.5
29 1 0.147727 0.321429 0.5
30 1 0.170455 0.392857 0.5
31 1 0.193182 0.321429 0.5
32 1 0.215909 0.392857 0.5
33 1 0.238636 0.321429 0.5
34 1 0.0113636 0.464286 0.5
36 1 0.0568182 0.464286 0.5
38 2 0.102273 0.464286 0.5
40 1 0.147727 0.464286 0.5
42 1 0.193182 0.464286 0.5
44 1 0.238636 0.464286 0.5
35 1 0.0340909 0.535714 0.5
37 1 0.0795455 0.535714 0.5
39 2 0.125 0.535714 0.5
41 1 0.170455 0.535714 0.5
43 1 0.215909 0.535714 0.5
45 1 0.0113636 0.607143 0.5
46 1 0.0340909 0.678571 0.5
47 1 0.0568182 0.607143 0.5
48 1 0.0795455 0.678571 0.5
49 2 0.102273 0.607143 0.5
50 2 0.125 0.678571 0.5
51 1 0.147727 0.607143 0.5
52 1 0.170455 0.678571 0.5
53 1 0.193182 0.607143 0.5
54 1 0.215909 0.678571 0.5
55 1 0.238636 0.607143 0.5
56 1 0.0113636 0.75 0.5
58 1 0.0568182 0.75 0.5
60 2 0.102273 0.75 0.5
62 2 0.147727 0.75 0.5
64 2 0.193182 0.75 0.5
66 1 0.238636 0.75 0.5
57 1 0.0340909 0.821429 0.5
67 1 0.0113636 0.892857 0.5
69 1 0.0568182 0.892857 0.5
59 1 0.0795455 0.821429 0.5
71 1 0.102273 0.892857 0.5
61 2 0.125 0.821429 0.5
63 2 0.170455 0.821429 0.5
73 1 0.147727 0.892857 0.5
75 1 0.193182 0.892857 0.5
65 2 0.215909 0.821429 0.5
77 1 0.238636 0.892857 0.5
68 1 0.0340909 0.964286 0.5
70 1 0.0795455 0.964286 0.5
72 1 0.125 0.964286 0.5
74 1 0.170455 0.964286 0.5
76 1 0.215909 0.964286 0.5
79 1 0.284091 0.0357143 0.5
81 1 0.329545 0.0357143 0.5
83 1 0.375 0.0357143 0.5
85 1 0.420455 0.0357143 0.5
87 1 0.465909 0.0357143 0.5
78 1 0.261364 0.107143 0.5
90 2 0.284091 0.178571 0.5
80 1 0.306818 0.107143 0.5
82 1 0.352273 0.107143 0.5
92 2 0.329545 0.178571 0.5
94 2 0.375 0.178571 0.5
84 1 0.397727 0.107143 0.5
96 2 0.420455 0.178571 0.5
86 1 0.443182 0.107143 0.5
88 1 0.488636 0.107143 0.5
98 1 0.465909 0.178571 0.5
89 1 0.261364 0.25 0.5
91 2 0.306818 0.25 0.5
93 2 0.352273 0.25 0.5
95 2 0.397727 0.25 0.5
97 2 0.443182 0.25 0.5
99 1 0.488636 0.25 0.5
100 1 0.261364 0.392857 0.5
101 2 0.284091 0.321429 0.5
102 2 0.306818 0.392857 0.5
103 1 0.329545 0.321429 0.5
104 1 0.352273 0.392857 0.5
105 2 0.375 0.321429 0.5
106 2 0.397727 0.392857 0.5
107 1 0.420455 0.321429 0.5
108 1 0.443182 0.392857 0.5
109 1 0.465909 0.321429 0.5
110 1 0.488636 0.392857 0.5
112 2 0.284091 0.464286 0.5
114 1 0.329545 0.464286 0.5
116 2 0.375 0.464286 0.5
118 1 0.420455 0.464286 0.5
120 1 0.465909 0.464286 0.5
111 1 0.261364 0.535714 0.5
113 2 0.306818 0.535714 0.5
115 1 0.352273 0.535714 0.5
117 2 0.397727 0.535714 0.5
119 1 0.443182 0.535714 0.5
121 1 0.488636 0.535714 0.5
122 1 0.261364 0.678571 0.5
123 2 0.284091 0.607143 0.5
124 2 0.306818 0.678571 0.5
125 1 0.329545 0.607143 0.5
126 1 0.352273 0.678571 0.5
127 2 0.375 0.607143 0.5
128 2 0.397727 0.678571 0.5
129 1 0.420455 0.607143 0.5
130 1 0.443182 0.678571 0.5
131 1 0.465909 0.607143 0.5
132 1 0.488636 0.678571 0.5
134 2 0.284091 0.75 0.5
136 2 0.329545 0.75 0.5
138 2 0.375 0.75 0.5
140 1 0.420455 0.75 0.5
142 1 0.465909 0.75 0.5
133 1 0.261364 0.821429 0.5
145 1 0.284091 0.892857 0.5
135 2 0.306818 0.821429 0.5
137 2 0.352273 0.821429 0.5
147 1 0.329545 0.892857 0.5
149 1 0.375 0.892857 0.5
139 2 0.397727 0.821429 0.5
151 1 0.420455 0.892857 0.5
141 1 0.443182 0.821429 0.5
143 1 0.488636 0.821429 0.5
153 1 0.465909 0.892857 0.5
144 1 0.261364 0.964286 0.5
146 1 0.306818 0.964286 0.5
148 1 0.352273 0.964286 0.5
150 1 0.397727 0.964286 0.5
152 1 0.443182 0.964286 0.5
154 1 0.488636 0.964286 0.5
155 1 0.511364 0.0357143 0.5
157 1 0.556818 0.0357143 0.5
159 1 0.602273 0.0357143 0.5
161 1 0.647727 0.0357143 0.5
163 1 0.693182 0.0357143 0.5
165 1 0.738636 0.0357143 0.5
156 1 0.534091 0.107143 0.5
166 2 0.511364 0.178571 0.5
168 1 0.556818 0.178571 0.5
158 1 0.579545 0.107143 0.5
170 2 0.602273 0.178571 0.5
160 1 0.625 0.107143 0.5
162 1 0.670455 0.107143 0.5
172 1 0.647727 0.178571 0.5
174 1 0.693182 0.178571 0.5
164 1 0.715909 0.107143 0.5
176 1 0.738636 0.178571 0.5
167 2 0.534091 0.25 0.5
169 1 0.579545 0.25 0.5
171 2 0.625 0.25 0.5
173 1 0.670455 0.25 0.5
175 1 0.715909 0.25 0.5
177 2 0.511364 0.321429 0.5
178 2 0.534091 0.392857 0.5
179 1 0.556818 0.321429 0.5
180 1 0.579545 0.392857 0.5
181 2 0.602273 0.321429 0.5
182 2 0.625 0.392857 0.5
183 1 0.647727 0.321429 0.5
184 1 0.670455 0.392857 0.5
185 1 0.693182 0.321429 0.5
186 1 0.715909 0.392857 0.5
187 1 0.738636 0.321429 0.5
188 2 0.511364 0.464286 0.5
190 1 0.556818 0.464286 0.5
192 2 0.602273 0.464286 0.5
194 2 0.647727 0.464286 0.5
196 2 0.693182 0.464286 0.5
198 1 0.738636 0.464286 0.5
189 2 0.534091 0.535714 0.5
191 1 0.579545 0.535714 0.5
193 2 0.625 0.535714 0.5
195 2 0.670455 0.535714 0.5
197 2 0.715909 0.535714 0.5
199 2 0.511364 0.607143 0.5
200 2 0.534091 0.678571 0.5
201 1 0.556818 0.607143 0.5
202 1 0.579545 0.678571 0.5
203 2 0.602273 0.607143 0.5
204 2 0.625 0.678571 0.5
205 1 0.647727 0.607143 0.5
206 1 0.670455 0.678571 0.5
207 2 0.693182 0.607143 0.5
208 2 0.715909 0.678571 0.5
209 1 0.738636 0.607143 0.5
210 2 0.511364 0.75 0.5
212 1 0.556818 0.75 0.5
214 2 0.602273 0.75 0.5
216 2 0.647727 0.75 0.5
218 2 0.693182 0.75 0.5
220 1 0.738636 0.75 0.5
211 2 0.534091 0.821429 0.5
221 1 0.511364 0.892857 0.5
223 1 0.556818 0.892857 0.5
213 1 0.579545 0.821429 0.5
225 1 0.602273 0.892857 0.5
215 2 0.625 0.821429 0.5
217 2 0.670455 0.821429 0.5
227 1 0.647727 0.892857 0.5
229 1 0.693182 0.892857 0.5
219 2 0.715909 0.821429 0.5
231 1 0.738636 0.892857 0.5
222 1 0.534091 0.964286 0.5
224 1 0.579545 0.964286 0.5
226 1 0.625 0.964286 0.5
228 1 0.670455 0.964286 0.5
230 1 0.715909 0.964286 0.5
233 1 0.784091 0.0357143 0.5
235 1 0.829545 0.0357143 0.5
237 1 0.875 0.0357143 0.5
239 1 0.920455 0.0357143 0.5
241 1 0.965909 0.0357143 0.5
232 1 0.761364 0.107143 0.5
244 2 0.784091 0.178571 0.5
234 1 0.806818 0.107143 0.5
236 1 0.852273 0.107143 0.5
246 2 0.829545 0.178571 0.5
248 2 0.875 0.178571 0.5
238 1 0.897727 0.107143 0.5
250 1 0.920455 0.178571 0.5
240 1 0.943182 0.107143 0.5
242 1 0.988636 0.107143 0.5
252 1 0.965909 0.178571 0.5
243 1 0.761364 0.25 0.5
245 2 0.806818 0.25 0.5
247 2 0.852273 0.25 0.5
249 2 0.897727 0.25 0.5
251 1 0.943182 0.25 0.5
253 1 0.988636 0.25 0.5
254 1 0.761364 0.392857 0.5
255 2 0.784091 0.321429 0.5
256 2 0.806818 0.392857 0.5
257 1 0.829545 0.321429 0.5
258 1 0.852273 0.392857 0.5
259 1 0.875 0.321429 0.5
260 1 0.897727 0.392857 0.5
261 1 0.920455 0.321429 0.5
262 1 0.943182 0.392857 0.5
263 1 0.965909 0.321429 0.5
264 1 0.988636 0.392857 0.5
266 2 0.784091 0.464286 0.5
268 1 0.829545 0.464286 0.5
270 1 0.875 0.464286 0.5
272 1 0.920455 0.464286 0.5
274 1 0.965909 0.464286 0.5
265 1 0.761364 0.535714 0.5
267 2 0.806818 0.535714 0.5
269 1 0.852273 0.535714 0.5
271 1 0.897727 0.535714 0.5
273 1 0.943182 0.535714 0.5
275 1 0.988636 0.535714 0.5
276 1 0.761364 0.678571 0.5
277 2 0.784091 0.607143 0.5
278 2 0.806818 0.678571 0.5
279 1 0.829545 0.607143 0.5
280 1 0.852273 0.678571 0.5
281 1 0.875 0.607143 0.5
282 1 0.897727 0.678571 0.5
283 1 0.920455 0.607143 0.5
284 1 0.943182 0.678571 0.5
285 1 0.965909 0.607143 0.5
286 1 0.988636 0.678571 0.5
288 2 0.784091 0.75 0.5
290 2 0.829545 0.75 0.5
292 2 0.875 0.75 0.5
294 1 0.920455 0.75 0.5
296 1 0.965909 0.75 0.5
287 1 0.761364 0.821429 0.5
299 1 0.784091 0.892857 0.5
289 2 0.806818 0.821429 0.5
291 2 0.852273 0.821429 0.5
301 1 0.829545 0.892857 0.5
303 1 0.875 0.892857 0.5
293 2 0.897727 0.821429 0.5
305 1 0.920455 0.892857 0.5
295 1 0.943182 0.821429 0.5
297 1 0.988636 0.821429 0.5
307 1 0.965909 0.892857 0.5
298 1 0.761364 0.964286 0.5
300 1 0.806818 0.964286 0.5
302 1 0.852273 0.964286 0.5
304 1 0.897727 0.964286 0.5
306 1 0.943182 0.964286 0.5
308 1 0.988636 0.964286 0.5
ITEM: TIMESTEP
60
ITEM: NUMBER OF ATOMS
308
ITEM: BOX BOUNDS pp pp pp
0.0000000000000000e+00 4.4000000000000000e+01
0.0000000000000000e+00 1.4000000000000000e+01
-1.0000000000000000e+00 1.0000000000000000e+00
ITEM: ATOMS id type xs ys zs
1 1 0.0113636 0.0357143 0.5
3 1 0.0568182 0.0357143 0.5
5 1 0.102273 0.0357143 0.5
7 1 0.147727 0.0357143 0.5
9 1 0.193182 0.0357143 0.5
11 1 0.238636 0.0357143 0.5
2 1 0.0340909 0.107143 0.5
12 1 0.0113636 0.178571 0.5
14 1 0.0568182 0.178571 0.5
4 1 0.0795455 0.107143 0.5
16 2 0.102273 0.178571 0.5
6 1 0.125 0.107143 0.5
8 1 0.170455 0.107143 0.5
18 2 0.147727 0.178571 0.5
20 2 0.193182 0.178571 0.5
10 1 0.215909 0.107143 0.5
22 1 0.238636 0.178571 0.5
13 1 0.0340909 0.25 0.5
15 1 0.0795455 0.25 0.5
17 2 0.125 0.25 0.5
19 2 0.170455 0.25 0.5
21 2 0.215909 0.25 0.5
23 1 0.0113636 0.321429 0.5
24 1 0.0340909 0.392857 0.5
25 1 0.0568182 0.321429 0.5
26 1 0.0795455 0.392857 0.5
27 2 0.102273 0.321429 0.5
28 2 0.125 0.392857 0.5
29 1 0.147727 0.321429 0.5
30 1 0.170455 0.392857 0.5
31 1 0.193182 0.321429 0.5
32 1 0.215909 0.392857 0.5
33 1 0.238636 0.321429 0.5
34 1 0.0113636 0.464286 0.5
36 1 0.0568182 0.464286 0.5
38 2 0.102273 0.464286 0.5
40 1 0.147727 0.464286 0.5
42 1 0.193182 0.464286 0.5
44 1 0.238636 0.464286 0.5
35 1 0.0340909 0.535714 0.5
37 1 0.0795455 0.535714 0.5
39 2 0.125 0.535714 0.5
41 1 0.170455 0.535714 0.5
43 1 0.215909 0.535714 0.5
45 1 0.0113636 0.607143 0.5
46 1 0.0340909 0.678571 0.5
47 1 0.0568182 0.607143 0.5
48 1 0.0795455 0.678571 0.5
49 2 0.102273 0.607143 0.5
50 2 0.125 0.678571 0.5
51 1 0.147727 0.607143 0.5
52 1 0.170455 0.678571 0.5
53 1 0.193182 0.607143 0.5
54 1 0.215909 0.678571 0.5
55 1 0.238636 0.607143 0.5
56 1 0.0113636 0.75 0.5
58 1 0.0568182 0.75 0.5
60 2 0.102273 0.75 0.5
62 2 0.147727 0.75 0.5
64 2 0.193182 0.75 0.5
66 1 0.238636 0.75 0.5
57 1 0.0340909 0.821429 0.5
67 1 0.0113636 0.892857 0.5
69 1 0.0568182 0.892857 0.5
59 1 0.0795455 0.821429 0.5
71 1 0.102273 0.892857 0.5
61 2 0.125 0.821429 0.5
63 2 0.170455 0.821429 0.5
73 1 0.147727 0.892857 0.5
75 1 0.193182 0.892857 0.5
65 2 0.215909 0.821429 0.5
77 1 0.238636 0.892857 0.5
68 1 0.0340909 0.964286 0.5
70 1 0.0795455 0.964286 0.5
72 1 0.125 0.964286 0.5
74 1 0.170455 0.964286 0.5
76 1 0.215909 0.964286 0.5
79 1 0.284091 0.0357143 0.5
81 1 0.329545 0.0357143 0.5
83 1 0.375 0.0357143 0.5
85 1 0.420455 0.0357143 0.5
87 1 0.465909 0.0357143 0.5
78 1 0.261364 0.107143 0.5
90 2 0.284091 0.178571 0.5
80 1 0.306818 0.107143 0.5
82 1 0.352273 0.107143 0.5
92 2 0.329545 0.178571 0.5
94 2 0.375 0.178571 0.5
84 1 0.397727 0.107143 0.5
96 2 0.420455 0.178571 0.5
86 1 0.443182 0.107143 0.5
88 1 0.488636 0.107143 0.5
98 1 0.465909 0.178571 0.5
89 1 0.261364 0.25 0.5
91 2 0.306818 0.25 0.5
93 2 0.352273 0.25 0.5
95 2 0.397727 0.25 0.5
97 2 0.443182 0.25 0.5
99 1 0.488636 0.25 0.5
100 1 0.261364 0.392857 0.5
101 2 0.284091 0.321429 0.5
102 2 0.306818 0.392857 0.5
103 1 0.329545 0.321429 0.5
104 1 0.352273 0.392857 0.5
105 2 0.375 0.321429 0.5
106 2 0.397727 0.392857 0.5
107 1 0.420455 0.321429 0.5
108 1 0.443182 0.392857 0.5
109 1 0.465909 0.321429 0.5
110 1 0.488636 0.392857 0.5
112 2 0.284091 0.464286 0.5
114 1 0.329545 0.464286 0.5
116 2 0.375 0.464286 0.5
118 1 0.420455 0.464286 0.5
120 1 0.465909 0.464286 0.5
111 1 0.261364 0.535714 0.5
113 2 0.306818 0.535714 0.5
115 1 0.352273 0.535714 0.5
117 2 0.397727 0.535714 0.5
119 1 0.443182 0.535714 0.5
121 1 0.488636 0.535714 0.5
122 1 0.261364 0.678571 0.5
123 2 0.284091 0.607143 0.5
124 2 0.306818 0.678571 0.5
125 1 0.329545 0.607143 0.5
126 1 0.352273 0.678571 0.5
127 2 0.375 0.607143 0.5
128 2 0.397727 0.678571 0.5
129 1 0.420455 0.607143 0.5
130 1 0.443182 0.678571 0.5
131 1 0.465909 0.607143 0.5
132 1 0.488636 0.678571 0.5
134 2 0.284091 0.75 0.5
136 2 0.329545 0.75 0.5
138 2 0.375 0.75 0.5
140 1 0.420455 0.75 0.5
142 1 0.465909 0.75 0.5
133 1 0.261364 0.821429 0.5
145 1 0.284091 0.892857 0.5
135 2 0.306818 0.821429 0.5
137 2 0.352273 0.821429 0.5
147 1 0.329545 0.892857 0.5
149 1 0.375 0.892857 0.5
139 2 0.397727 0.821429 0.5
151 1 0.420455 0.892857 0.5
141 1 0.443182 0.821429 0.5
143 1 0.488636 0.821429 0.5
153 1 0.465909 0.892857 0.5
144 1 0.261364 0.964286 0.5
146 1 0.306818 0.964286 0.5
148 1 0.352273 0.964286 0.5
150 1 0.397727 0.964286 0.5
152 1 0.443182 0.964286 0.5
154 1 0.488636 0.964286 0.5