LAMMPS (29 Sep 2021 - Update 3)
OMP_NUM_THREADS environment is not set. Defaulting to 1 thread. (src/comm.cpp:98)
  using 1 OpenMP thread(s) per MPI task
#Cu melt
#模型级别参数
units	metal
boundary		p p p
atom_style	atomic #对金属不含键信息
timestep		0.001 #1fs 1分秒
neighbor		2.0 bin #在力的阶段半径外面 扩展了2.0Am
neigh_modify	every 1 delay 0


#建模
lattice		fcc 3.61
Lattice spacing in x,y,z = 3.6100000 3.6100000 3.6100000
region		box block 0 5 0 5 0 5 #默认晶格单位 x y z三个方向的最小最大值 5个晶格常数 如果写成050505 units box则单位为Am 尺寸5Am
create_box	1 box #盒子里面包含1种原子
Created orthogonal box = (0.0000000 0.0000000 0.0000000) to (18.050000 18.050000 18.050000)
  2 by 2 by 2 MPI processor grid
create_atoms	1 box #盒子里面填充原子 原子类型为1 即第一种类型
Created 500 atoms
  using lattice units in orthogonal box = (0.0000000 0.0000000 0.0000000) to (18.050000 18.050000 18.050000)
  create_atoms CPU = 0.000 seconds

#看到模拟结果 热力学信息输出 体系输出
thermo		100 #100步输出一次
thermo_style	custom step temp pe ke  #自定义输出 包括步数 温度 势能 动能

#设置势函数 也就是力场
pair_style		eam
pair_coeff		* * Cu_u3.eam
Reading eam potential file Cu_u3.eam with DATE: 2007-06-11

#温度初始化
velocity 		all create 300 89895 #所有原子300k 随机种子89895 每个原子速度不一样的 随便写一个值

#能量最小化 省略

#熔化melt
dump		1 all atom 1000 melt.xyz #保存原子状态 1是dump编号 所有原子 原子类型 1000步输出一次 输出到哪个文件中
fix		1 all nvt temp 300 2000 0.01 #系综编号1 对所有原子施加nvt控温 原子个数体积不变 起始温度300 结束温度2000 温度阻尼系数一般是步长x100
run		10000 #运行1万步 相当于10ps 升温速率1700k/10ps=170k/ps
Neighbor list info ...
  update every 1 steps, delay 0 steps, check yes
  max neighbors/atom: 2000, page size: 100000
  master list distance cutoff = 6.95
  ghost atom cutoff = 6.95
  binsize = 3.475, bins = 6 6 6
  1 neighbor lists, perpetual/occasional/extra = 1 0 0
  (1) pair eam, perpetual
      attributes: half, newton on
      pair build: half/bin/atomonly/newton
      stencil: half/bin/3d
      bin: standard
Per MPI rank memory allocation (min/avg/max) = 4.342 | 4.342 | 4.342 Mbytes
Step Temp PotEng KinEng 
       0          300   -1769.9558    19.350244 
     100    289.48286   -1740.4082    18.671879 
     200    326.27174   -1749.2662    21.044792 
     300    358.32858   -1746.0082    23.112484 
     400    362.09619   -1745.8203    23.355498 
     500    356.36813    -1744.377    22.986034 
     600    407.48724   -1744.1728    26.283258 
     700    415.36323   -1741.2835    26.791266 
     800    451.44215   -1739.2787    29.118385 
     900    446.98013   -1744.8346    28.830581 
    1000    477.67831    -1738.165    30.810639 
    1100    498.80063   -1736.5718    32.173046 
    1200    537.28736   -1736.2128    34.655471 
    1300    495.76802   -1739.4898     31.97744 
    1400    533.93272   -1736.6072    34.439094 
    1500    505.47651   -1727.5997    32.603646 
    1600    569.85795   -1731.3154    36.756301 
    1700    557.37173   -1734.7039    35.950929 
    1800    648.66057   -1731.5682    41.839134 
    1900    611.81583   -1729.5797    39.462618 
    2000    643.39014   -1727.9295    41.499187 
    2100    624.72701   -1727.5741    40.295399 
    2200    670.80759   -1724.5893    43.267635 
    2300    711.35718   -1727.5807    45.883116 
    2400    697.93494   -1722.1041     45.01737 
    2500    757.92013   -1719.1636    48.886464 
    2600    751.70969   -1724.1787    48.485886 
    2700    732.24396   -1723.1829     47.23033 
    2800    787.09724   -1716.0918    50.768411 
    2900    774.11439   -1718.2943    49.931007 
    3000    794.45239   -1716.8944    51.242824 
    3100    864.75334   -1717.6968    55.777293 
    3200     810.6833    -1714.657    52.289732 
    3300    850.29842    -1715.798    54.844939 
    3400    856.06202   -1708.3883    55.216696 
    3500     857.3892   -1711.9075      55.3023 
    3600    950.91189   -1716.4234     61.33459 
    3700    934.20865   -1705.6379    60.257217 
    3800    923.87881   -1705.4979    59.590934 
    3900    1003.0453   -1708.7089    64.697239 
    4000    1014.1011   -1707.3934    65.410342 
    4100     999.4024   -1703.5894    64.462267 
    4200    1021.6185   -1704.2061    65.895222 
    4300    1085.3811   -1698.7168     70.00796 
    4400    969.88689    -1703.288    62.558492 
    4500    1099.7927   -1704.3832    70.937522 
    4600    1032.1921   -1699.2703    66.577228 
    4700    1167.3613   -1697.5107    75.295751 
    4800    1072.4684   -1697.4961    69.175081 
    4900    1155.1753   -1696.2322    74.509748 
    5000    1166.2854    -1698.612    75.226356 
    5100    1181.1233   -1692.1677    76.183411 
    5200    1214.0621     -1693.68     78.30799 
    5300    1167.5299   -1693.6416    75.306624 
    5400    1262.8678   -1687.1155    81.455999 
    5500    1198.4394   -1689.3082    77.300316 
    5600    1293.2328   -1685.0037    83.414569 
    5700    1144.5589   -1690.0935    73.824976 
    5800    1362.9304    -1687.551    87.910117 
    5900    1299.9402   -1685.1808    83.847199 
    6000    1306.1672    -1681.994    84.248846 
    6100    1387.2281   -1690.5252    89.477342 
    6200    1282.5761   -1681.5348    82.727198 
    6300    1388.9155   -1679.3813    89.586177 
    6400     1409.217   -1681.9641     90.89564 
    6500    1458.0785   -1673.9198    94.047251 
    6600    1372.2622   -1669.1658    88.512028 
    6700    1450.2661   -1680.1615    93.543343 
    6800    1470.5723   -1671.1227     94.85311 
    6900    1444.8935   -1677.6812    93.196802 
    7000    1450.8211   -1674.2191    93.579141 
    7100    1627.5455   -1663.5574    104.97801 
    7200    1564.5058    -1677.026    100.91189 
    7300    1434.2577   -1663.6707    92.510786 
    7400    1554.9114   -1671.5883    100.29305 
    7500    1629.9997   -1668.2176     105.1363 
    7600    1586.5969   -1670.7541    102.33679 
    7700    1575.0434   -1668.0518    101.59158 
    7800    1567.2146   -1659.7257    101.08662 
    7900    1631.0651    -1659.428    105.20502 
    8000    1619.9373   -1658.5696    104.48727 
    8100     1692.489    -1660.748    109.16692 
    8200    1693.3975   -1655.7928    109.22552 
    8300    1657.7252   -1655.6895    106.92462 
    8400    1679.1496   -1647.9051    108.30651 
    8500    1592.6816   -1650.1253    102.72926 
    8600    1861.5537   -1655.0511    120.07173 
    8700    1615.0865   -1653.0533    104.17439 
    8800    1881.9148   -1654.0433    121.38503 
    8900    1857.9492   -1648.9337    119.83923 
    9000    1785.9402   -1653.8262    115.19459 
    9100    1855.1079    -1655.257    119.65597 
    9200    1785.4806   -1643.2604    115.16495 
    9300    1951.7566   -1644.9574    125.88988 
    9400    1874.4605   -1654.2506    120.90423 
    9500    1950.2479   -1636.3671    125.79258 
    9600    1901.7927   -1644.9304    122.66717 
    9700    1836.6182    -1632.463    118.46336 
    9800    1967.6637   -1641.0314     126.9159 
    9900     2023.448   -1638.6477    130.51404 
   10000    1879.3885   -1640.1295    121.22209 
Loop time of 1.51374 on 8 procs for 10000 steps with 500 atoms

Performance: 570.773 ns/day, 0.042 hours/ns, 6606.174 timesteps/s
99.1% CPU use with 8 MPI tasks x 1 OpenMP threads

MPI task timing breakdown:
Section |  min time  |  avg time  |  max time  |%varavg| %total
---------------------------------------------------------------
Pair    | 1.0055     | 1.0403     | 1.0969     |   2.6 | 68.73
Neigh   | 0.0037867  | 0.0039254  | 0.0041278  |   0.2 |  0.26
Comm    | 0.31736    | 0.37439    | 0.41046    |   4.4 | 24.73
Output  | 0.0040683  | 0.0041837  | 0.0048137  |   0.4 |  0.28
Modify  | 0.047083   | 0.050269   | 0.052103   |   0.7 |  3.32
Other   |            | 0.04063    |            |       |  2.68

Nlocal:        62.5000 ave          68 max          55 min
Histogram: 1 0 0 3 0 0 1 0 0 3
Nghost:        852.875 ave         869 max         846 min
Histogram: 4 1 0 0 1 0 1 0 0 1
Neighs:        3815.25 ave        4441 max        3348 min
Histogram: 1 0 2 2 0 1 1 0 0 1

Total # of neighbors = 30522
Ave neighs/atom = 61.044000
Neighbor list builds = 35
Dangerous builds = 0



Total wall time: 0:00:01
