ITEM: TIMESTEP
0
ITEM: NUMBER OF ATOMS
500
ITEM: BOX BOUNDS pp pp pp
0.0000000000000000e+00 1.8050000000000001e+01
0.0000000000000000e+00 1.8050000000000001e+01
0.0000000000000000e+00 1.8050000000000001e+01
ITEM: ATOMS id type xs ys zs
1 1 0 0 0
2 1 0.1 0.1 0
3 1 0.1 0 0.1
4 1 0 0.1 0.1
5 1 0.2 0 0
8 1 0.2 0.1 0.1
11 1 0 0.2 0
13 1 0.1 0.2 0.1
15 1 0.2 0.2 0
26 1 0 0 0.2
27 1 0.1 0.1 0.2
30 1 0.2 0 0.2
36 1 0 0.2 0.2
40 1 0.2 0.2 0.2
6 1 0.3 0.1 0
7 1 0.3 0 0.1
9 1 0.4 0 0
10 1 0.4 0.1 0.1
17 1 0.3 0.2 0.1
19 1 0.4 0.2 0
31 1 0.3 0.1 0.2
34 1 0.4 0 0.2
44 1 0.4 0.2 0.2
12 1 0.1 0.3 0
14 1 0 0.3 0.1
18 1 0.2 0.3 0.1
21 1 0 0.4 0
22 1 0.1 0.4 0.1
23 1 0.2 0.4 0
37 1 0.1 0.3 0.2
46 1 0 0.4 0.2
48 1 0.2 0.4 0.2
16 1 0.3 0.3 0
20 1 0.4 0.3 0.1
24 1 0.3 0.4 0.1
25 1 0.4 0.4 0
41 1 0.3 0.3 0.2
50 1 0.4 0.4 0.2
28 1 0.1 0 0.3
29 1 0 0.1 0.3
33 1 0.2 0.1 0.3
38 1 0.1 0.2 0.3
51 1 0 0 0.4
52 1 0.1 0.1 0.4
53 1 0.2 0 0.4
56 1 0 0.2 0.4
58 1 0.2 0.2 0.4
32 1 0.3 0 0.3
35 1 0.4 0.1 0.3
42 1 0.3 0.2 0.3
54 1 0.3 0.1 0.4
55 1 0.4 0 0.4
60 1 0.4 0.2 0.4
39 1 0 0.3 0.3
43 1 0.2 0.3 0.3
47 1 0.1 0.4 0.3
57 1 0.1 0.3 0.4
61 1 0 0.4 0.4
62 1 0.2 0.4 0.4
45 1 0.4 0.3 0.3
49 1 0.3 0.4 0.3
59 1 0.3 0.3 0.4
63 1 0.4 0.4 0.4
64 1 0.1 0 0.5
65 1 0 0.1 0.5
67 1 0.2 0.1 0.5
69 1 0.1 0.2 0.5
76 1 0 0 0.6
77 1 0.1 0.1 0.6
78 1 0.1 0 0.7
79 1 0 0.1 0.7
80 1 0.2 0 0.6
83 1 0.2 0.1 0.7
86 1 0 0.2 0.6
88 1 0.1 0.2 0.7
90 1 0.2 0.2 0.6
66 1 0.3 0 0.5
68 1 0.4 0.1 0.5
71 1 0.3 0.2 0.5
81 1 0.3 0.1 0.6
82 1 0.3 0 0.7
84 1 0.4 0 0.6
85 1 0.4 0.1 0.7
92 1 0.3 0.2 0.7
94 1 0.4 0.2 0.6
70 1 0 0.3 0.5
72 1 0.2 0.3 0.5
74 1 0.1 0.4 0.5
87 1 0.1 0.3 0.6
89 1 0 0.3 0.7
93 1 0.2 0.3 0.7
96 1 0 0.4 0.6
97 1 0.1 0.4 0.7
98 1 0.2 0.4 0.6
73 1 0.4 0.3 0.5
75 1 0.3 0.4 0.5
91 1 0.3 0.3 0.6
95 1 0.4 0.3 0.7
99 1 0.3 0.4 0.7
100 1 0.4 0.4 0.6
101 1 0 0 0.8
102 1 0.1 0.1 0.8
103 1 0.1 0 0.9
104 1 0 0.1 0.9
105 1 0.2 0 0.8
108 1 0.2 0.1 0.9
111 1 0 0.2 0.8
113 1 0.1 0.2 0.9
115 1 0.2 0.2 0.8
106 1 0.3 0.1 0.8
107 1 0.3 0 0.9
109 1 0.4 0 0.8
110 1 0.4 0.1 0.9
117 1 0.3 0.2 0.9
119 1 0.4 0.2 0.8
112 1 0.1 0.3 0.8
114 1 0 0.3 0.9
118 1 0.2 0.3 0.9
121 1 0 0.4 0.8
122 1 0.1 0.4 0.9
123 1 0.2 0.4 0.8
116 1 0.3 0.3 0.8
120 1 0.4 0.3 0.9
124 1 0.3 0.4 0.9
125 1 0.4 0.4 0.8
126 1 0.1 0.5 0
127 1 0 0.5 0.1
129 1 0.2 0.5 0.1
131 1 0 0.6 0
132 1 0.1 0.7 0
133 1 0.1 0.6 0.1
134 1 0 0.7 0.1
135 1 0.2 0.6 0
138 1 0.2 0.7 0.1
151 1 0.1 0.5 0.2
156 1 0 0.6 0.2
157 1 0.1 0.7 0.2
160 1 0.2 0.6 0.2
128 1 0.3 0.5 0
130 1 0.4 0.5 0.1
136 1 0.3 0.7 0
137 1 0.3 0.6 0.1
139 1 0.4 0.6 0
140 1 0.4 0.7 0.1
153 1 0.3 0.5 0.2
161 1 0.3 0.7 0.2
164 1 0.4 0.6 0.2
141 1 0 0.8 0
142 1 0.1 0.9 0
143 1 0.1 0.8 0.1
144 1 0 0.9 0.1
145 1 0.2 0.8 0
148 1 0.2 0.9 0.1
166 1 0 0.8 0.2
167 1 0.1 0.9 0.2
170 1 0.2 0.8 0.2
146 1 0.3 0.9 0
147 1 0.3 0.8 0.1
149 1 0.4 0.8 0
150 1 0.4 0.9 0.1
171 1 0.3 0.9 0.2
174 1 0.4 0.8 0.2
152 1 0 0.5 0.3
154 1 0.2 0.5 0.3
158 1 0.1 0.6 0.3
159 1 0 0.7 0.3
163 1 0.2 0.7 0.3
176 1 0.1 0.5 0.4
178 1 0 0.6 0.4
179 1 0.1 0.7 0.4
180 1 0.2 0.6 0.4
155 1 0.4 0.5 0.3
162 1 0.3 0.6 0.3
165 1 0.4 0.7 0.3
177 1 0.3 0.5 0.4
181 1 0.3 0.7 0.4
182 1 0.4 0.6 0.4
168 1 0.1 0.8 0.3
169 1 0 0.9 0.3
173 1 0.2 0.9 0.3
183 1 0 0.8 0.4
184 1 0.1 0.9 0.4
185 1 0.2 0.8 0.4
172 1 0.3 0.8 0.3
175 1 0.4 0.9 0.3
186 1 0.3 0.9 0.4
187 1 0.4 0.8 0.4
188 1 0 0.5 0.5
189 1 0.2 0.5 0.5
191 1 0.1 0.6 0.5
192 1 0 0.7 0.5
194 1 0.2 0.7 0.5
201 1 0.1 0.5 0.6
202 1 0 0.5 0.7
204 1 0.2 0.5 0.7
206 1 0 0.6 0.6
207 1 0.1 0.7 0.6
208 1 0.1 0.6 0.7
209 1 0 0.7 0.7
210 1 0.2 0.6 0.6
213 1 0.2 0.7 0.7
190 1 0.4 0.5 0.5
193 1 0.3 0.6 0.5
195 1 0.4 0.7 0.5
203 1 0.3 0.5 0.6
205 1 0.4 0.5 0.7
211 1 0.3 0.7 0.6
212 1 0.3 0.6 0.7
214 1 0.4 0.6 0.6
215 1 0.4 0.7 0.7
196 1 0.1 0.8 0.5
197 1 0 0.9 0.5
199 1 0.2 0.9 0.5
216 1 0 0.8 0.6
217 1 0.1 0.9 0.6
218 1 0.1 0.8 0.7
219 1 0 0.9 0.7
220 1 0.2 0.8 0.6
223 1 0.2 0.9 0.7
198 1 0.3 0.8 0.5
200 1 0.4 0.9 0.5
221 1 0.3 0.9 0.6
222 1 0.3 0.8 0.7
224 1 0.4 0.8 0.6
225 1 0.4 0.9 0.7
226 1 0.1 0.5 0.8
227 1 0 0.5 0.9
229 1 0.2 0.5 0.9
231 1 0 0.6 0.8
232 1 0.1 0.7 0.8
233 1 0.1 0.6 0.9
234 1 0 0.7 0.9
235 1 0.2 0.6 0.8
238 1 0.2 0.7 0.9
228 1 0.3 0.5 0.8
230 1 0.4 0.5 0.9
236 1 0.3 0.7 0.8
237 1 0.3 0.6 0.9
239 1 0.4 0.6 0.8
240 1 0.4 0.7 0.9
241 1 0 0.8 0.8
242 1 0.1 0.9 0.8
243 1 0.1 0.8 0.9
244 1 0 0.9 0.9
245 1 0.2 0.8 0.8
248 1 0.2 0.9 0.9
246 1 0.3 0.9 0.8
247 1 0.3 0.8 0.9
249 1 0.4 0.8 0.8
250 1 0.4 0.9 0.9
251 1 0.5 0.1 0
252 1 0.5 0 0.1
253 1 0.6 0 0
254 1 0.7 0.1 0
255 1 0.7 0 0.1
256 1 0.6 0.1 0.1
262 1 0.5 0.2 0.1
263 1 0.6 0.2 0
265 1 0.7 0.2 0.1
276 1 0.5 0.1 0.2
278 1 0.6 0 0.2
279 1 0.7 0.1 0.2
288 1 0.6 0.2 0.2
257 1 0.8 0 0
258 1 0.9 0.1 0
259 1 0.9 0 0.1
260 1 0.8 0.1 0.1
267 1 0.8 0.2 0
269 1 0.9 0.2 0.1
282 1 0.8 0 0.2
283 1 0.9 0.1 0.2
292 1 0.8 0.2 0.2
261 1 0.5 0.3 0
264 1 0.7 0.3 0
266 1 0.6 0.3 0.1
271 1 0.5 0.4 0.1
272 1 0.6 0.4 0
273 1 0.7 0.4 0.1
286 1 0.5 0.3 0.2
289 1 0.7 0.3 0.2
297 1 0.6 0.4 0.2
268 1 0.9 0.3 0
270 1 0.8 0.3 0.1
274 1 0.8 0.4 0
275 1 0.9 0.4 0.1
293 1 0.9 0.3 0.2
299 1 0.8 0.4 0.2
277 1 0.5 0 0.3
280 1 0.7 0 0.3
281 1 0.6 0.1 0.3
287 1 0.5 0.2 0.3
290 1 0.7 0.2 0.3
301 1 0.5 0.1 0.4
302 1 0.6 0 0.4
303 1 0.7 0.1 0.4
307 1 0.6 0.2 0.4
284 1 0.9 0 0.3
285 1 0.8 0.1 0.3
294 1 0.9 0.2 0.3
304 1 0.8 0 0.4
305 1 0.9 0.1 0.4
309 1 0.8 0.2 0.4
291 1 0.6 0.3 0.3
296 1 0.5 0.4 0.3
298 1 0.7 0.4 0.3
306 1 0.5 0.3 0.4
308 1 0.7 0.3 0.4
311 1 0.6 0.4 0.4
295 1 0.8 0.3 0.3
300 1 0.9 0.4 0.3
310 1 0.9 0.3 0.4
312 1 0.8 0.4 0.4
313 1 0.5 0 0.5
314 1 0.7 0 0.5
315 1 0.6 0.1 0.5
318 1 0.5 0.2 0.5
319 1 0.7 0.2 0.5
326 1 0.5 0.1 0.6
327 1 0.5 0 0.7
328 1 0.6 0 0.6
329 1 0.7 0.1 0.6
330 1 0.7 0 0.7
331 1 0.6 0.1 0.7
337 1 0.5 0.2 0.7
338 1 0.6 0.2 0.6
340 1 0.7 0.2 0.7
316 1 0.9 0 0.5
317 1 0.8 0.1 0.5
321 1 0.9 0.2 0.5
332 1 0.8 0 0.6
333 1 0.9 0.1 0.6
334 1 0.9 0 0.7
335 1 0.8 0.1 0.7
342 1 0.8 0.2 0.6
344 1 0.9 0.2 0.7
320 1 0.6 0.3 0.5
323 1 0.5 0.4 0.5
324 1 0.7 0.4 0.5
336 1 0.5 0.3 0.6
339 1 0.7 0.3 0.6
341 1 0.6 0.3 0.7
346 1 0.5 0.4 0.7
347 1 0.6 0.4 0.6
348 1 0.7 0.4 0.7
322 1 0.8 0.3 0.5
325 1 0.9 0.4 0.5
343 1 0.9 0.3 0.6
345 1 0.8 0.3 0.7
349 1 0.8 0.4 0.6
350 1 0.9 0.4 0.7
351 1 0.5 0.1 0.8
352 1 0.5 0 0.9
353 1 0.6 0 0.8
354 1 0.7 0.1 0.8
355 1 0.7 0 0.9
356 1 0.6 0.1 0.9
362 1 0.5 0.2 0.9
363 1 0.6 0.2 0.8
365 1 0.7 0.2 0.9
357 1 0.8 0 0.8
358 1 0.9 0.1 0.8
359 1 0.9 0 0.9
360 1 0.8 0.1 0.9
367 1 0.8 0.2 0.8
369 1 0.9 0.2 0.9
361 1 0.5 0.3 0.8
364 1 0.7 0.3 0.8
366 1 0.6 0.3 0.9
371 1 0.5 0.4 0.9
372 1 0.6 0.4 0.8
373 1 0.7 0.4 0.9
368 1 0.9 0.3 0.8
370 1 0.8 0.3 0.9
374 1 0.8 0.4 0.8
375 1 0.9 0.4 0.9
376 1 0.5 0.5 0
377 1 0.7 0.5 0
378 1 0.6 0.5 0.1
381 1 0.5 0.7 0
382 1 0.5 0.6 0.1
383 1 0.6 0.6 0
384 1 0.7 0.7 0
385 1 0.7 0.6 0.1
386 1 0.6 0.7 0.1
401 1 0.5 0.5 0.2
402 1 0.7 0.5 0.2
406 1 0.5 0.7 0.2
408 1 0.6 0.6 0.2
409 1 0.7 0.7 0.2
379 1 0.9 0.5 0
380 1 0.8 0.5 0.1
387 1 0.8 0.6 0
388 1 0.9 0.7 0
389 1 0.9 0.6 0.1
390 1 0.8 0.7 0.1
404 1 0.9 0.5 0.2
412 1 0.8 0.6 0.2
413 1 0.9 0.7 0.2
391 1 0.5 0.9 0
392 1 0.5 0.8 0.1
393 1 0.6 0.8 0
394 1 0.7 0.9 0
395 1 0.7 0.8 0.1
396 1 0.6 0.9 0.1
416 1 0.5 0.9 0.2
418 1 0.6 0.8 0.2
419 1 0.7 0.9 0.2
397 1 0.8 0.8 0
398 1 0.9 0.9 0
399 1 0.9 0.8 0.1
400 1 0.8 0.9 0.1
422 1 0.8 0.8 0.2
423 1 0.9 0.9 0.2
403 1 0.6 0.5 0.3
407 1 0.5 0.6 0.3
410 1 0.7 0.6 0.3
411 1 0.6 0.7 0.3
426 1 0.5 0.5 0.4
427 1 0.7 0.5 0.4
429 1 0.5 0.7 0.4
430 1 0.6 0.6 0.4
431 1 0.7 0.7 0.4
405 1 0.8 0.5 0.3
414 1 0.9 0.6 0.3
415 1 0.8 0.7 0.3
428 1 0.9 0.5 0.4
432 1 0.8 0.6 0.4
433 1 0.9 0.7 0.4
417 1 0.5 0.8 0.3
420 1 0.7 0.8 0.3
421 1 0.6 0.9 0.3
434 1 0.5 0.9 0.4
435 1 0.6 0.8 0.4
436 1 0.7 0.9 0.4
424 1 0.9 0.8 0.3
425 1 0.8 0.9 0.3
437 1 0.8 0.8 0.4
438 1 0.9 0.9 0.4
439 1 0.6 0.5 0.5
441 1 0.5 0.6 0.5
442 1 0.7 0.6 0.5
443 1 0.6 0.7 0.5
451 1 0.5 0.5 0.6
452 1 0.7 0.5 0.6
453 1 0.6 0.5 0.7
456 1 0.5 0.7 0.6
457 1 0.5 0.6 0.7
458 1 0.6 0.6 0.6
459 1 0.7 0.7 0.6
460 1 0.7 0.6 0.7
461 1 0.6 0.7 0.7
440 1 0.8 0.5 0.5
444 1 0.9 0.6 0.5
445 1 0.8 0.7 0.5
454 1 0.9 0.5 0.6
455 1 0.8 0.5 0.7
462 1 0.8 0.6 0.6
463 1 0.9 0.7 0.6
464 1 0.9 0.6 0.7
465 1 0.8 0.7 0.7
446 1 0.5 0.8 0.5
447 1 0.7 0.8 0.5
448 1 0.6 0.9 0.5
466 1 0.5 0.9 0.6
467 1 0.5 0.8 0.7
468 1 0.6 0.8 0.6
469 1 0.7 0.9 0.6
470 1 0.7 0.8 0.7
471 1 0.6 0.9 0.7
449 1 0.9 0.8 0.5
450 1 0.8 0.9 0.5
472 1 0.8 0.8 0.6
473 1 0.9 0.9 0.6
474 1 0.9 0.8 0.7
475 1 0.8 0.9 0.7
476 1 0.5 0.5 0.8
477 1 0.7 0.5 0.8
478 1 0.6 0.5 0.9
481 1 0.5 0.7 0.8
482 1 0.5 0.6 0.9
483 1 0.6 0.6 0.8
484 1 0.7 0.7 0.8
485 1 0.7 0.6 0.9
486 1 0.6 0.7 0.9
479 1 0.9 0.5 0.8
480 1 0.8 0.5 0.9
487 1 0.8 0.6 0.8
488 1 0.9 0.7 0.8
489 1 0.9 0.6 0.9
490 1 0.8 0.7 0.9
491 1 0.5 0.9 0.8
492 1 0.5 0.8 0.9
493 1 0.6 0.8 0.8
494 1 0.7 0.9 0.8
495 1 0.7 0.8 0.9
496 1 0.6 0.9 0.9
497 1 0.8 0.8 0.8
498 1 0.9 0.9 0.8
499 1 0.9 0.8 0.9
500 1 0.8 0.9 0.9
ITEM: TIMESTEP
1000
ITEM: NUMBER OF ATOMS
500
ITEM: BOX BOUNDS pp pp pp
0.0000000000000000e+00 1.8050000000000001e+01
0.0000000000000000e+00 1.8050000000000001e+01
0.0000000000000000e+00 1.8050000000000001e+01
ITEM: ATOMS id type xs ys zs
1 1 -0.00560775 -0.000608676 0.000451677
2 1 0.0984639 0.100668 0.00626387
3 1 0.0974399 -0.00289104 0.101349
4 1 0.00185401 0.0962982 0.0997017
5 1 0.203942 0.00546851 -0.0066366
8 1 0.193596 0.0886384 0.103338
11 1 -0.000295275 0.205178 -0.00112076
13 1 0.0940575 0.197797 0.106223
15 1 0.188543 0.195045 0.00563544
26 1 -0.000514879 -0.0104946 0.198865
27 1 0.098132 0.097739 0.204896
30 1 0.214689 -0.00629021 0.200235
36 1 -0.0112964 0.189776 0.204071
40 1 0.197671 0.195953 0.190218
6 1 0.294715 0.100687 -0.0133149
7 1 0.305256 -0.00334783 0.0984012
9 1 0.396324 -0.00412944 -0.0160008
10 1 0.39979 0.10297 0.0917024
17 1 0.296383 0.191245 0.0931962
19 1 0.388048 0.199837 0.000348275
31 1 0.295321 0.105152 0.195833
34 1 0.399109 0.0050647 0.199955
44 1 0.400814 0.198946 0.196857
12 1 0.0934726 0.304733 0.000172641
14 1 -0.00417786 0.292581 0.100941
18 1 0.198271 0.298285 0.100513
21 1 -0.00716089 0.398723 -0.0042463
22 1 0.0898901 0.397356 0.101472
23 1 0.193405 0.393218 0.000860218
37 1 0.0879797 0.295083 0.200819
46 1 -0.00363517 0.399371 0.201866
48 1 0.194659 0.392156 0.205563
16 1 0.29153 0.303448 0.0125393
20 1 0.401436 0.295438 0.103404
24 1 0.295141 0.399731 0.111677
25 1 0.403132 0.396142 0.0225741
41 1 0.302418 0.282827 0.207975
50 1 0.407957 0.388599 0.202197
28 1 0.101138 -0.0019843 0.296553
29 1 -0.00933483 0.103823 0.307686
33 1 0.210108 0.0973693 0.310846
38 1 0.0977092 0.192156 0.303279
51 1 0.00477375 -0.00414678 0.403946
52 1 0.0906797 0.0933354 0.412549
53 1 0.199493 0.00299086 0.405875
56 1 -0.00803539 0.204454 0.408131
58 1 0.182204 0.194689 0.408314
32 1 0.306874 -0.0113913 0.303106
35 1 0.400304 0.0991459 0.298957
42 1 0.299592 0.189869 0.301803
54 1 0.30288 0.0950874 0.402478
55 1 0.403718 0.00268953 0.398232
60 1 0.40862 0.19391 0.399921
39 1 -0.0128445 0.294077 0.301358
43 1 0.192592 0.289782 0.301736
47 1 0.0896374 0.401952 0.299028
57 1 0.091102 0.301001 0.389148
61 1 0.00471415 0.412116 0.392924
62 1 0.199828 0.393792 0.384024
45 1 0.4084 0.292091 0.29955
49 1 0.291793 0.390687 0.290423
59 1 0.300761 0.285815 0.395684
63 1 0.402209 0.395023 0.395966
64 1 0.100856 -0.0132669 0.517175
65 1 -0.0160497 0.09574 0.503185
67 1 0.19329 0.0990475 0.519446
69 1 0.0996927 0.206232 0.514114
76 1 -0.00839801 -0.00207782 0.602712
77 1 0.0896984 0.0949624 0.595234
78 1 0.0992476 0.00310543 0.695196
79 1 -0.00163212 0.102383 0.69584
80 1 0.199182 -0.00681537 0.599682
83 1 0.197119 0.100601 0.693401
86 1 -0.00286061 0.211808 0.595573
88 1 0.101208 0.204952 0.694167
90 1 0.19533 0.207846 0.599591
66 1 0.309309 -0.000504579 0.501559
68 1 0.405487 0.105961 0.511685
71 1 0.286368 0.202928 0.493206
81 1 0.29997 0.0970571 0.598612
82 1 0.303696 0.00179907 0.699221
84 1 0.403745 0.00820613 0.606402
85 1 0.391661 0.101936 0.695164
92 1 0.304004 0.204623 0.691789
94 1 0.396792 0.205959 0.603267
70 1 0.0118513 0.308044 0.495583
72 1 0.189847 0.301907 0.495786
74 1 0.109808 0.411655 0.489687
87 1 0.102899 0.307268 0.601614
89 1 0.00198763 0.303658 0.694479
93 1 0.202624 0.307658 0.692492
96 1 0.0029304 0.401967 0.598308
97 1 0.109773 0.400058 0.714375
98 1 0.200749 0.405925 0.600604
73 1 0.404131 0.297808 0.494108
75 1 0.294813 0.404187 0.491892
91 1 0.304104 0.31315 0.594619
95 1 0.408163 0.313878 0.701108
99 1 0.298356 0.403094 0.709135
100 1 0.396615 0.403814 0.596853
101 1 -0.000250573 -0.00197793 0.795911
102 1 0.0949764 0.10703 0.794973
103 1 0.104173 0.00570666 0.907253
104 1 0.00533817 0.0987424 0.897362
105 1 0.191581 -0.000791909 0.799736
108 1 0.196944 0.10318 0.888901
111 1 0.00711055 0.209983 0.796896
113 1 0.0952736 0.205327 0.904352
115 1 0.196048 0.203399 0.79044
106 1 0.291485 0.100169 0.791332
107 1 0.294606 0.00258094 0.882619
109 1 0.402479 -0.00303464 0.797282
110 1 0.392957 0.104644 0.891406
117 1 0.29658 0.20502 0.895245
119 1 0.396637 0.203724 0.791031
112 1 0.107953 0.302359 0.803564
114 1 -0.000256703 0.308677 0.89738
118 1 0.202186 0.302616 0.909793
121 1 -0.00229776 0.399946 0.796307
122 1 0.104792 0.400966 0.904583
123 1 0.201982 0.405862 0.808927
116 1 0.301671 0.301116 0.803588
120 1 0.401348 0.305121 0.900409
124 1 0.305206 0.399881 0.905404
125 1 0.409603 0.411076 0.8107
126 1 0.0923975 0.500715 0.00542361
127 1 -0.00909239 0.501734 0.1095
129 1 0.188756 0.492832 0.0949771
131 1 -0.000972533 0.600464 0.00828944
132 1 0.0983988 0.710109 -0.00636592
133 1 0.0909568 0.606911 0.10663
134 1 -0.00719658 0.70412 0.0996957
135 1 0.201004 0.598168 0.0174895
138 1 0.19146 0.704621 0.100703
151 1 0.0879499 0.499627 0.195283
156 1 -0.00819764 0.605885 0.207551
157 1 0.0912775 0.702706 0.200179
160 1 0.200099 0.605802 0.201148
128 1 0.290111 0.491713 0.0106562
130 1 0.390649 0.499861 0.108139
136 1 0.292555 0.710702 0.00996681
137 1 0.294343 0.607148 0.1059
139 1 0.388076 0.602991 0.0125898
140 1 0.395693 0.702342 0.115912
153 1 0.293312 0.494092 0.201824
161 1 0.29189 0.716419 0.203432
164 1 0.392015 0.597217 0.201227
141 1 0.00152677 0.797874 -0.00253141
142 1 0.0926442 0.912213 -0.00188974
143 1 0.0904046 0.804052 0.0969337
144 1 -0.000111947 0.898263 0.0914709
145 1 0.185791 0.803621 -0.00938755
148 1 0.19714 0.897728 0.0959997
166 1 -0.00283837 0.805902 0.201794
167 1 0.0940537 0.905278 0.205339
170 1 0.182545 0.801521 0.193
146 1 0.300121 0.907795 -0.0101139
147 1 0.29937 0.80443 0.0973954
149 1 0.407866 0.799363 0.0111264
150 1 0.405936 0.903871 0.0992971
171 1 0.296153 0.887206 0.205606
174 1 0.405486 0.796923 0.207968
152 1 -0.00228544 0.50785 0.295244
154 1 0.19 0.497293 0.293188
158 1 0.0985237 0.599414 0.295012
159 1 -0.00714572 0.715154 0.312579
163 1 0.194144 0.701691 0.296272
176 1 0.0978124 0.509834 0.394251
178 1 -0.00541642 0.610126 0.396169
179 1 0.100477 0.698385 0.398497
180 1 0.205194 0.599359 0.385239
155 1 0.408777 0.487268 0.295452
162 1 0.297788 0.589362 0.295814
165 1 0.396009 0.700834 0.294695
177 1 0.300261 0.497249 0.393228
181 1 0.296601 0.702466 0.398518
182 1 0.407252 0.588739 0.383499
168 1 0.101921 0.798337 0.305961
169 1 0.00201092 0.898648 0.303519
173 1 0.196366 0.909053 0.306813
183 1 -0.00138837 0.811127 0.406759
184 1 0.0981243 0.905711 0.408605
185 1 0.201538 0.801613 0.400649
172 1 0.300633 0.806478 0.308065
175 1 0.409913 0.89234 0.296422
186 1 0.303751 0.89917 0.400749
187 1 0.414803 0.7935 0.40228
188 1 0.00263248 0.497028 0.496449
189 1 0.206416 0.500271 0.490464
191 1 0.105541 0.596424 0.500086
192 1 -0.00508431 0.699057 0.499768
194 1 0.197562 0.691835 0.498159
201 1 0.10669 0.496404 0.606253
202 1 0.00963858 0.504184 0.695389
204 1 0.201631 0.500809 0.700824
206 1 0.00266134 0.601711 0.598114
207 1 0.102401 0.698237 0.593967
208 1 0.105295 0.597249 0.699714
209 1 0.00348905 0.691236 0.700184
210 1 0.204399 0.598559 0.598371
213 1 0.20628 0.689148 0.703602
190 1 0.40306 0.496577 0.494071
193 1 0.302284 0.595797 0.48239
195 1 0.40416 0.686659 0.48768
203 1 0.302889 0.502506 0.591562
205 1 0.395935 0.498777 0.701618
211 1 0.297332 0.69855 0.587064
212 1 0.306612 0.595805 0.700016
214 1 0.398889 0.599492 0.593138
215 1 0.392078 0.702809 0.698641
196 1 0.0965467 0.800355 0.499966
197 1 -0.0140479 0.899315 0.510401
199 1 0.200956 0.900015 0.50219
216 1 -0.00849782 0.795845 0.596173
217 1 0.101107 0.899282 0.602255
218 1 0.113148 0.794168 0.692888
219 1 -0.00640495 0.896777 0.698418
220 1 0.208004 0.796545 0.595224
223 1 0.201398 0.898092 0.698669
198 1 0.318401 0.792026 0.502965
200 1 0.41281 0.903279 0.49723
221 1 0.304577 0.90004 0.60258
222 1 0.298702 0.794753 0.697459
224 1 0.405519 0.789355 0.601999
225 1 0.401569 0.899962 0.692488
226 1 0.0968863 0.502384 0.806264
227 1 -0.00530968 0.499428 0.90297
229 1 0.19883 0.501113 0.908521
231 1 0.012024 0.5947 0.805094
232 1 0.109308 0.696466 0.796784
233 1 0.102382 0.59574 0.91107
234 1 0.010021 0.696513 0.894896
235 1 0.200482 0.590873 0.807923
238 1 0.202375 0.70223 0.895711
228 1 0.303184 0.497906 0.805544
230 1 0.401805 0.506666 0.920351
236 1 0.304736 0.701051 0.801383
237 1 0.297347 0.594106 0.907174
239 1 0.390855 0.597431 0.817473
240 1 0.393768 0.702 0.907697
241 1 0.00275249 0.793032 0.784221
242 1 0.102404 0.901578 0.786493
243 1 0.099462 0.807605 0.894479
244 1 0.000966887 0.895997 0.888937
245 1 0.201069 0.803741 0.807787
248 1 0.198799 0.910262 0.899767
246 1 0.303075 0.904899 0.794322
247 1 0.297848 0.803557 0.903555
249 1 0.397468 0.7955 0.798383
250 1 0.398726 0.892808 0.903435
251 1 0.491728 0.10138 0.000454513
252 1 0.508634 0.00530344 0.0988367
253 1 0.602484 0.00408817 -0.011693
254 1 0.701115 0.100195 -0.018264
255 1 0.700022 0.00709013 0.0915947
256 1 0.601951 0.111808 0.0825258
262 1 0.505967 0.196434 0.0996474
263 1 0.603045 0.198234 -0.00823143
265 1 0.714064 0.200962 0.0853923
276 1 0.503841 0.10014 0.191535
278 1 0.606763 0.00334251 0.192915
279 1 0.69555 0.0978676 0.188596
288 1 0.607367 0.197769 0.196195
257 1 0.807798 0.00880753 -0.00730553
258 1 0.910603 0.0974921 -0.00805715
259 1 0.897086 -0.00942994 0.100488
260 1 0.800517 0.0986248 0.0879664
267 1 0.806205 0.196232 -0.00788024
269 1 0.905309 0.193328 0.10052
282 1 0.801743 0.000896382 0.199285
283 1 0.900215 0.0892254 0.196673
292 1 0.80136 0.196104 0.196693
261 1 0.505311 0.301966 0.0028537
264 1 0.705155 0.303709 -0.0015239
266 1 0.610564 0.292193 0.0939202
271 1 0.517649 0.390377 0.102706
272 1 0.610918 0.401982 -0.00469553
273 1 0.708612 0.395924 0.092204
286 1 0.512923 0.299004 0.194769
289 1 0.706876 0.296805 0.188545
297 1 0.614326 0.395375 0.188478
268 1 0.898616 0.296241 -0.00521702
270 1 0.804272 0.298756 0.100787
274 1 0.804161 0.39136 -0.00626174
275 1 0.908986 0.388938 0.108262
293 1 0.899085 0.287069 0.197326
299 1 0.801158 0.403724 0.194835
277 1 0.497688 0.00222292 0.295524
280 1 0.703842 0.0101726 0.302771
281 1 0.602653 0.0943274 0.294381
287 1 0.514995 0.199051 0.290539
290 1 0.709505 0.195335 0.298227
301 1 0.505542 0.095065 0.403487
302 1 0.60264 0.00441917 0.409446
303 1 0.695469 0.101365 0.402144
307 1 0.603962 0.198643 0.404117
284 1 0.903988 -0.00418222 0.298717
285 1 0.803684 0.108313 0.303036
294 1 0.892279 0.205902 0.318007
304 1 0.79241 0.00194697 0.412262
305 1 0.887846 0.102264 0.406967
309 1 0.802456 0.208193 0.419415
291 1 0.609946 0.302641 0.302283
296 1 0.508099 0.389824 0.299
298 1 0.703197 0.402138 0.307339
306 1 0.512584 0.29101 0.394927
308 1 0.709201 0.300959 0.400606
311 1 0.606702 0.399541 0.403027
295 1 0.799594 0.305338 0.301335
300 1 0.901137 0.408315 0.298219
310 1 0.897888 0.311404 0.410514
312 1 0.795347 0.407111 0.405485
313 1 0.50229 -0.00128367 0.506837
314 1 0.696055 0.00285632 0.512221
315 1 0.60188 0.100581 0.497818
318 1 0.506541 0.200892 0.499459
319 1 0.69956 0.199293 0.502186
326 1 0.498678 0.0978307 0.6024
327 1 0.495863 0.00129324 0.693688
328 1 0.606099 0.00267938 0.616229
329 1 0.694952 0.0994976 0.606103
330 1 0.699439 -0.00514964 0.702393
331 1 0.600206 0.105297 0.709695
337 1 0.496732 0.209816 0.699104
338 1 0.604127 0.203186 0.602628
340 1 0.701235 0.20082 0.708983
316 1 0.890057 -0.00142979 0.514966
317 1 0.800317 0.10729 0.509983
321 1 0.893922 0.216081 0.503266
332 1 0.793562 0.00704069 0.605623
333 1 0.901448 0.111086 0.60779
334 1 0.891836 -0.00316411 0.70017
335 1 0.801853 0.102355 0.708059
342 1 0.799968 0.21434 0.610526
344 1 0.905727 0.206437 0.702691
320 1 0.598063 0.30438 0.493628
323 1 0.500667 0.393474 0.506693
324 1 0.68969 0.399089 0.506376
336 1 0.500406 0.305492 0.60204
339 1 0.68872 0.313891 0.608573
341 1 0.597132 0.308816 0.702469
346 1 0.49777 0.410954 0.707099
347 1 0.592673 0.420441 0.614177
348 1 0.695389 0.414844 0.705255
322 1 0.794189 0.311584 0.508353
325 1 0.905568 0.409615 0.495518
343 1 0.899187 0.30705 0.597836
345 1 0.785927 0.317656 0.697384
349 1 0.802601 0.405689 0.604052
350 1 0.900886 0.405985 0.694356
351 1 0.501269 0.104622 0.791449
352 1 0.498648 0.0042417 0.891655
353 1 0.60113 -0.0146897 0.796052
354 1 0.700762 0.105045 0.80382
355 1 0.700831 -0.0112207 0.898187
356 1 0.596295 0.0955762 0.889439
362 1 0.504211 0.189667 0.898987
363 1 0.599988 0.204952 0.800838
365 1 0.699708 0.199748 0.893996
357 1 0.795991 -0.00990825 0.803413
358 1 0.902537 0.100508 0.795353
359 1 0.90596 0.00204682 0.889231
360 1 0.805621 0.0946752 0.893319
367 1 0.801195 0.200078 0.802919
369 1 0.90677 0.194466 0.890739
361 1 0.497005 0.305188 0.80778
364 1 0.689904 0.307352 0.808609
366 1 0.600725 0.299633 0.909929
371 1 0.504155 0.407736 0.908337
372 1 0.594517 0.409152 0.811833
373 1 0.703865 0.401488 0.899652
368 1 0.893812 0.299378 0.798943
370 1 0.80268 0.293926 0.901561
374 1 0.798537 0.415174 0.797611
375 1 0.897653 0.397427 0.900664
376 1 0.505003 0.495905 0.0141032
377 1 0.711753 0.499895 -0.000198738
378 1 0.612135 0.495609 0.0875584
381 1 0.499736 0.702924 0.00640944
382 1 0.50136 0.604476 0.106438
383 1 0.607938 0.605876 0.0092679
384 1 0.71545 0.69902 0.0043533
385 1 0.715132 0.590374 0.103836
386 1 0.61138 0.708703 0.107177
401 1 0.504168 0.499483 0.188489
402 1 0.704029 0.501215 0.196906
406 1 0.507838 0.704641 0.195895
408 1 0.610083 0.600626 0.197232
409 1 0.700336 0.704466 0.197091
379 1 0.900694 0.504804 0.00190549
380 1 0.811573 0.488208 0.0916576
387 1 0.805344 0.602158 -0.00291931
388 1 0.90503 0.705057 -0.00824533
389 1 0.891754 0.611608 0.0932571
390 1 0.795817 0.704684 0.107292
404 1 0.894258 0.50058 0.206373
412 1 0.800405 0.597223 0.199042
413 1 0.896213 0.707423 0.200197
391 1 0.500491 0.899914 -0.00328126
392 1 0.514852 0.80281 0.099766
393 1 0.616451 0.801274 0.00527336
394 1 0.709247 0.902514 -0.00206182
395 1 0.711435 0.806784 0.0993375
396 1 0.6109 0.905363 0.100482
416 1 0.504276 0.903007 0.204789
418 1 0.609295 0.807241 0.202133
419 1 0.700812 0.907516 0.200854
397 1 0.807843 0.793845 -0.00727733
398 1 0.904087 0.898653 -0.00863243
399 1 0.904247 0.805859 0.0982326
400 1 0.79763 0.901879 0.0986293
422 1 0.790759 0.809306 0.204106
423 1 0.896474 0.897279 0.202882
403 1 0.603261 0.500931 0.286788
407 1 0.504287 0.593069 0.291752
410 1 0.699324 0.603633 0.289002
411 1 0.597743 0.69228 0.302654
426 1 0.512489 0.487821 0.393839
427 1 0.700566 0.507366 0.399608
429 1 0.501356 0.690794 0.391071
430 1 0.59765 0.591171 0.399229
431 1 0.694813 0.696179 0.390469
405 1 0.800376 0.505921 0.299013
414 1 0.897524 0.601767 0.295838
415 1 0.800311 0.698865 0.296101
428 1 0.897346 0.512752 0.393707
432 1 0.795396 0.609611 0.400904
433 1 0.889328 0.697806 0.402859
417 1 0.5103 0.80073 0.299704
420 1 0.701602 0.799411 0.303991
421 1 0.602126 0.90602 0.293878
434 1 0.506472 0.902562 0.395368
435 1 0.601471 0.80501 0.399489
436 1 0.692104 0.905731 0.395194
424 1 0.895088 0.808673 0.29855
425 1 0.79323 0.912004 0.2991
437 1 0.794763 0.804794 0.403
438 1 0.894917 0.896884 0.405019
439 1 0.594088 0.501772 0.501447
441 1 0.499741 0.593481 0.492084
442 1 0.69401 0.59995 0.498606
443 1 0.596418 0.686527 0.492085
451 1 0.489289 0.506735 0.609226
452 1 0.705836 0.503366 0.605109
453 1 0.603438 0.514811 0.704222
456 1 0.492011 0.691153 0.588715
457 1 0.501114 0.598361 0.713739
458 1 0.603022 0.584468 0.599051
459 1 0.697077 0.68992 0.596204
460 1 0.700223 0.606683 0.710307
461 1 0.596085 0.701054 0.696239
440 1 0.792247 0.506382 0.496722
444 1 0.898557 0.601929 0.501302
445 1 0.791908 0.702188 0.495896
454 1 0.901227 0.496987 0.591847
455 1 0.798034 0.501513 0.701168
462 1 0.802703 0.601414 0.600585
463 1 0.891246 0.697827 0.59763
464 1 0.907821 0.59187 0.695817
465 1 0.804515 0.692181 0.69901
446 1 0.498518 0.799765 0.499858
447 1 0.689196 0.799399 0.491899
448 1 0.595318 0.900294 0.501189
466 1 0.510605 0.894139 0.59821
467 1 0.498542 0.792882 0.697975
468 1 0.596881 0.790063 0.597419
469 1 0.69319 0.887201 0.603348
470 1 0.702409 0.785122 0.707737
471 1 0.599024 0.888809 0.699954
449 1 0.886009 0.79472 0.498505
450 1 0.795145 0.900218 0.502707
472 1 0.779843 0.792879 0.589165
473 1 0.881222 0.890367 0.607662
474 1 0.889988 0.792485 0.696408
475 1 0.789988 0.882461 0.713374
476 1 0.494273 0.508473 0.801035
477 1 0.698273 0.500791 0.80274
478 1 0.604684 0.501004 0.907592
481 1 0.492043 0.694763 0.804938
482 1 0.503359 0.602249 0.903531
483 1 0.600826 0.59719 0.815791
484 1 0.69976 0.686678 0.806874
485 1 0.704618 0.59677 0.906762
486 1 0.603611 0.694249 0.902661
479 1 0.908624 0.505551 0.796922
480 1 0.81388 0.499362 0.904291
487 1 0.805022 0.589717 0.790024
488 1 0.912961 0.688605 0.796232
489 1 0.90642 0.599823 0.902844
490 1 0.803072 0.690025 0.892348
491 1 0.496982 0.895348 0.801353
492 1 0.498303 0.788719 0.901681
493 1 0.593822 0.784774 0.799619
494 1 0.702081 0.88817 0.807437
495 1 0.698981 0.782792 0.897882
496 1 0.593777 0.899113 0.893277
497 1 0.798858 0.784999 0.800705
498 1 0.895588 0.891684 0.803382
499 1 0.903083 0.79308 0.893528
500 1 0.801691 0.898868 0.901189
ITEM: TIMESTEP
2000
ITEM: NUMBER OF ATOMS
500
ITEM: BOX BOUNDS pp pp pp
0.0000000000000000e+00 1.8050000000000001e+01
0.0000000000000000e+00 1.8050000000000001e+01
0.0000000000000000e+00 1.8050000000000001e+01
ITEM: ATOMS id type xs ys zs
1 1 0.00314549 -0.00369612 -0.00489123
2 1 0.104888 0.0899478 -0.00485947
3 1 0.108181 0.0188609 0.107295
4 1 0.00187433 0.094509 0.101067
5 1 0.207886 -0.00193868 -0.00829258
8 1 0.213728 0.105573 0.0934931
11 1 0.00477162 0.190694 0.00130953
13 1 0.0967009 0.186997 0.100973
15 1 0.191366 0.196755 -0.0038895
26 1 -0.00452076 -0.0131871 0.2113
27 1 0.0853904 0.093294 0.209504
30 1 0.201058 0.00607106 0.20813
36 1 -0.0100174 0.189507 0.196373
40 1 0.185483 0.17719 0.204007
6 1 0.302881 0.109286 -0.005654
7 1 0.287303 -0.000463346 0.102939
9 1 0.394905 0.00617457 -0.0059513
10 1 0.39222 0.106679 0.100181
17 1 0.297013 0.19511 0.100518
19 1 0.392905 0.200082 0.00561948
31 1 0.301012 0.0995196 0.204798
34 1 0.404569 0.00999699 0.19454
44 1 0.388572 0.190655 0.201934
12 1 0.0981566 0.290614 0.00567312
14 1 0.00443563 0.291741 0.0945521
18 1 0.187757 0.294095 0.109841
21 1 0.0085594 0.4001 0.00529555
22 1 0.0935666 0.395796 0.110693
23 1 0.188298 0.389743 0.00943439
37 1 0.0950626 0.29258 0.197366
46 1 0.00182613 0.394937 0.199342
48 1 0.19089 0.396835 0.194522
16 1 0.290389 0.287277 0.00123054
20 1 0.383094 0.288418 0.106793
24 1 0.292967 0.398128 0.103536
25 1 0.398665 0.406241 0.013932
41 1 0.29332 0.289537 0.206733
50 1 0.402593 0.395551 0.193551
28 1 0.0911983 0.0130301 0.31056
29 1 -0.0101571 0.0983462 0.30363
33 1 0.189133 0.101474 0.311312
38 1 0.0810348 0.199717 0.317015
51 1 -0.00895696 -0.00193007 0.426864
52 1 0.0839559 0.0969577 0.412936
53 1 0.198643 0.00308088 0.40206
56 1 -0.00910018 0.197741 0.402376
58 1 0.194803 0.192725 0.400906
32 1 0.306543 0.0100183 0.299347
35 1 0.414213 0.101398 0.314466
42 1 0.295501 0.189937 0.306913
54 1 0.305007 0.0972913 0.39863
55 1 0.418083 0.00718672 0.410147
60 1 0.411682 0.199033 0.398602
39 1 -0.00575123 0.304369 0.299347
43 1 0.199218 0.295965 0.302067
47 1 0.104232 0.401094 0.305831
57 1 0.0923961 0.297164 0.412276
61 1 -0.00897952 0.406281 0.394149
62 1 0.19939 0.39901 0.404208
45 1 0.400197 0.294293 0.286251
49 1 0.309864 0.387255 0.296907
59 1 0.306951 0.299973 0.388541
63 1 0.398055 0.389805 0.387917
64 1 0.101908 -0.00746262 0.492964
65 1 -0.0128723 0.0967521 0.520431
67 1 0.207727 0.0994482 0.49335
69 1 0.0868538 0.200052 0.50836
76 1 0.00125559 0.000570866 0.605525
77 1 0.10266 0.0960656 0.585202
78 1 0.102896 0.00443132 0.699462
79 1 -0.0123695 0.0937895 0.703137
80 1 0.210721 0.0107536 0.597844
83 1 0.205914 0.1005 0.688428
86 1 -0.00494795 0.194832 0.61272
88 1 0.102114 0.202902 0.689712
90 1 0.212939 0.185873 0.591055
66 1 0.309909 0.00347451 0.499105
68 1 0.408227 0.105455 0.495391
71 1 0.307222 0.198114 0.489525
81 1 0.319958 0.105757 0.601272
82 1 0.307643 0.00605117 0.691237
84 1 0.397655 0.00351587 0.598654
85 1 0.40179 0.11264 0.704781
92 1 0.303129 0.210393 0.695753
94 1 0.410676 0.209223 0.602346
70 1 -0.00702817 0.300863 0.505518
72 1 0.208475 0.294042 0.487842
74 1 0.103397 0.405826 0.493234
87 1 0.111491 0.308608 0.591622
89 1 0.00834674 0.308843 0.692524
93 1 0.205506 0.296691 0.690012
96 1 0.00990321 0.397163 0.589761
97 1 0.120599 0.401169 0.689193
98 1 0.214122 0.408281 0.585638
73 1 0.396766 0.304383 0.488255
75 1 0.30206 0.404858 0.479214
91 1 0.304203 0.298957 0.579501
95 1 0.397655 0.306024 0.69648
99 1 0.295036 0.403146 0.703813
100 1 0.392174 0.401185 0.596032
101 1 0.0097137 0.00110298 0.79611
102 1 0.102515 0.105676 0.793594
103 1 0.10356 -0.00312982 0.885417
104 1 0.0036313 0.0966755 0.895249
105 1 0.211456 -0.00159792 0.794134
108 1 0.192746 0.0965309 0.881496
111 1 -0.0123699 0.188654 0.795871
113 1 0.0948575 0.20206 0.890982
115 1 0.208577 0.202802 0.79002
106 1 0.298366 0.107454 0.788595
107 1 0.304677 0.00493843 0.889755
109 1 0.398235 -0.0089647 0.792738
110 1 0.387112 0.10395 0.886656
117 1 0.296895 0.207375 0.894773
119 1 0.392667 0.214286 0.798137
112 1 0.10014 0.30733 0.794575
114 1 -0.00747187 0.294463 0.896447
118 1 0.195251 0.303137 0.898813
121 1 0.00274049 0.407895 0.797435
122 1 0.0965717 0.387252 0.90369
123 1 0.193884 0.393906 0.799884